   3   3   1   0
  0.6796390E+02  0.3189484E-09  0.3189484E-09  0.2314344E-08  0.5000000E-15
  1.000000000000000E-004
  CAR 
 unknown system                          
      8.97931935    -20.41354220  301     -3.45169344      1.00000000
    -20.414  0.0000E+00  0.0000E+00
    -20.316  0.0000E+00  0.0000E+00
    -20.218  0.0000E+00  0.0000E+00
    -20.120  0.0000E+00  0.0000E+00
    -20.022  0.0000E+00  0.0000E+00
    -19.924 -0.2318E-31 -0.2271E-32
    -19.826 -0.1246E-24 -0.1221E-25
    -19.728 -0.9659E-19 -0.9463E-20
    -19.630 -0.1038E-13 -0.1017E-14
    -19.532 -0.1612E-09 -0.1580E-10
    -19.434 -0.3462E-06 -0.3394E-07
    -19.336 -0.9878E-04 -0.9712E-05
    -19.238 -0.3469E-02 -0.3496E-03
    -19.140 -0.7049E-02 -0.1040E-02
    -19.042  0.1778E+00  0.1638E-01
    -18.944  0.5304E+00  0.6835E-01
    -18.846  0.3060E+00  0.9832E-01
    -18.748  0.7470E+00  0.1715E+00
    -18.650  0.5173E+00  0.2222E+00
    -18.552  0.9069E-01  0.2311E+00
    -18.454  0.9539E+00  0.3245E+00
    -18.356  0.6832E+00  0.3915E+00
    -18.258  0.4223E+00  0.4329E+00
    -18.160  0.1134E+00  0.4440E+00
    -18.062  0.1085E+01  0.5503E+00
    -17.964  0.1014E+01  0.6496E+00
    -17.866  0.3110E+00  0.6801E+00
    -17.768  0.5990E+00  0.7388E+00
    -17.670  0.1713E+01  0.9066E+00
    -17.572  0.2576E+01  0.1159E+01
    -17.474  0.1774E+01  0.1333E+01
    -17.376  0.1559E+01  0.1486E+01
    -17.278  0.2812E+01  0.1761E+01
    -17.180  0.3495E+01  0.2104E+01
    -17.082  0.3001E+01  0.2398E+01
    -16.984  0.4370E+01  0.2826E+01
    -16.886  0.4081E+01  0.3226E+01
    -16.788  0.4428E+01  0.3659E+01
    -16.690  0.2728E+01  0.3927E+01
    -16.592  0.8084E+00  0.4006E+01
    -16.494 -0.4320E-01  0.4002E+01
    -16.397 -0.1723E-01  0.4000E+01
    -16.299 -0.3292E-03  0.4000E+01
    -16.201 -0.7847E-06  0.4000E+01
    -16.103 -0.2570E-09  0.4000E+01
    -16.005 -0.1191E-13  0.4000E+01
    -15.907  0.0000E+00  0.4000E+01
    -15.809  0.0000E+00  0.4000E+01
    -15.711  0.0000E+00  0.4000E+01
    -15.613  0.0000E+00  0.4000E+01
    -15.515  0.0000E+00  0.4000E+01
    -15.417  0.0000E+00  0.4000E+01
    -15.319  0.0000E+00  0.4000E+01
    -15.221  0.0000E+00  0.4000E+01
    -15.123  0.0000E+00  0.4000E+01
    -15.025  0.0000E+00  0.4000E+01
    -14.927  0.0000E+00  0.4000E+01
    -14.829  0.0000E+00  0.4000E+01
    -14.731  0.0000E+00  0.4000E+01
    -14.633  0.0000E+00  0.4000E+01
    -14.535  0.0000E+00  0.4000E+01
    -14.437  0.0000E+00  0.4000E+01
    -14.339  0.0000E+00  0.4000E+01
    -14.241  0.0000E+00  0.4000E+01
    -14.143  0.0000E+00  0.4000E+01
    -14.045  0.0000E+00  0.4000E+01
    -13.947  0.0000E+00  0.4000E+01
    -13.849  0.0000E+00  0.4000E+01
    -13.751  0.0000E+00  0.4000E+01
    -13.653  0.0000E+00  0.4000E+01
    -13.555  0.0000E+00  0.4000E+01
    -13.457  0.0000E+00  0.4000E+01
    -13.359  0.0000E+00  0.4000E+01
    -13.261  0.0000E+00  0.4000E+01
    -13.163  0.0000E+00  0.4000E+01
    -13.065  0.0000E+00  0.4000E+01
    -12.967  0.0000E+00  0.4000E+01
    -12.869  0.0000E+00  0.4000E+01
    -12.771  0.0000E+00  0.4000E+01
    -12.673  0.0000E+00  0.4000E+01
    -12.575  0.0000E+00  0.4000E+01
    -12.477  0.0000E+00  0.4000E+01
    -12.379  0.0000E+00  0.4000E+01
    -12.282  0.0000E+00  0.4000E+01
    -12.184  0.0000E+00  0.4000E+01
    -12.086  0.0000E+00  0.4000E+01
    -11.988  0.0000E+00  0.4000E+01
    -11.890  0.0000E+00  0.4000E+01
    -11.792  0.0000E+00  0.4000E+01
    -11.694  0.0000E+00  0.4000E+01
    -11.596  0.0000E+00  0.4000E+01
    -11.498  0.0000E+00  0.4000E+01
    -11.400  0.0000E+00  0.4000E+01
    -11.302  0.0000E+00  0.4000E+01
    -11.204  0.0000E+00  0.4000E+01
    -11.106  0.0000E+00  0.4000E+01
    -11.008  0.0000E+00  0.4000E+01
    -10.910  0.0000E+00  0.4000E+01
    -10.812  0.0000E+00  0.4000E+01
    -10.714 -0.1575E-30  0.4000E+01
    -10.616 -0.8348E-24  0.4000E+01
    -10.518 -0.6378E-18  0.4000E+01
    -10.420 -0.6764E-13  0.4000E+01
    -10.322 -0.1039E-08  0.4000E+01
    -10.224 -0.2215E-05  0.4000E+01
    -10.126 -0.6281E-03  0.4000E+01
    -10.028 -0.1995E-01  0.3998E+01
     -9.930  0.4548E-01  0.4002E+01
     -9.832  0.7618E+00  0.4077E+01
     -9.734  0.8167E+00  0.4157E+01
     -9.636  0.1483E+01  0.4302E+01
     -9.538  0.1733E+01  0.4472E+01
     -9.440  0.1425E+01  0.4612E+01
     -9.342  0.2734E+01  0.4880E+01
     -9.244  0.2626E+01  0.5137E+01
     -9.146  0.3355E+01  0.5466E+01
     -9.048  0.5498E+01  0.6004E+01
     -8.950  0.3237E+01  0.6321E+01
     -8.852  0.1075E+01  0.6427E+01
     -8.754  0.1409E+01  0.6565E+01
     -8.656  0.2285E+01  0.6789E+01
     -8.558  0.1394E+01  0.6925E+01
     -8.460  0.4076E+00  0.6965E+01
     -8.362  0.2657E+00  0.6991E+01
     -8.264  0.4145E+00  0.7032E+01
     -8.167  0.8934E+00  0.7119E+01
     -8.069  0.6920E+00  0.7187E+01
     -7.971  0.3376E+01  0.7518E+01
     -7.873  0.5178E+01  0.8025E+01
     -7.775  0.5005E+01  0.8516E+01
     -7.677  0.3423E+01  0.8851E+01
     -7.579  0.1995E+01  0.9046E+01
     -7.481  0.2251E+01  0.9267E+01
     -7.383  0.7936E+00  0.9345E+01
     -7.285  0.5207E+00  0.9396E+01
     -7.187  0.1199E+01  0.9513E+01
     -7.089  0.2976E+01  0.9805E+01
     -6.991  0.4914E+01  0.1029E+02
     -6.893  0.5736E+01  0.1085E+02
     -6.795  0.4248E+01  0.1126E+02
     -6.697  0.7183E+00  0.1133E+02
     -6.599  0.1390E+01  0.1147E+02
     -6.501  0.1822E+01  0.1165E+02
     -6.403  0.1260E+01  0.1177E+02
     -6.305  0.1073E+01  0.1188E+02
     -6.207  0.6034E+00  0.1194E+02
     -6.109  0.1597E+01  0.1209E+02
     -6.011  0.2792E+01  0.1237E+02
     -5.913  0.2970E+01  0.1266E+02
     -5.815  0.2386E+01  0.1289E+02
     -5.717  0.2037E+01  0.1309E+02
     -5.619  0.4663E+01  0.1355E+02
     -5.521  0.4664E+01  0.1401E+02
     -5.423  0.1412E+01  0.1414E+02
     -5.325  0.2760E+01  0.1441E+02
     -5.227  0.3605E+01  0.1477E+02
     -5.129  0.2270E+01  0.1499E+02
     -5.031  0.1486E+01  0.1514E+02
     -4.933  0.2513E+01  0.1538E+02
     -4.835  0.1177E+01  0.1550E+02
     -4.737  0.1856E+01  0.1568E+02
     -4.639  0.2540E+01  0.1593E+02
     -4.541  0.1337E+01  0.1606E+02
     -4.443  0.1677E+01  0.1622E+02
     -4.345  0.3343E+01  0.1655E+02
     -4.247  0.1938E+01  0.1674E+02
     -4.149  0.2885E+01  0.1702E+02
     -4.052  0.2180E+01  0.1724E+02
     -3.954  0.1248E+01  0.1736E+02
     -3.856  0.1821E+01  0.1754E+02
     -3.758  0.1828E+01  0.1772E+02
     -3.660  0.9089E+00  0.1781E+02
     -3.562  0.1167E+01  0.1792E+02
     -3.464  0.7842E+00  0.1800E+02
     -3.366  0.5523E-01  0.1800E+02
     -3.268 -0.2146E-01  0.1800E+02
     -3.170 -0.7721E-03  0.1800E+02
     -3.072 -0.2995E-05  0.1800E+02
     -2.974 -0.1527E-08  0.1800E+02
     -2.876 -0.1077E-12  0.1800E+02
     -2.778  0.0000E+00  0.1800E+02
     -2.680  0.0000E+00  0.1800E+02
     -2.582  0.0000E+00  0.1800E+02
     -2.484  0.0000E+00  0.1800E+02
     -2.386  0.0000E+00  0.1800E+02
     -2.288  0.0000E+00  0.1800E+02
     -2.190  0.0000E+00  0.1800E+02
     -2.092 -0.3131E-32  0.1800E+02
     -1.994 -0.2614E-25  0.1800E+02
     -1.896 -0.3148E-19  0.1800E+02
     -1.798 -0.5279E-14  0.1800E+02
     -1.700 -0.1281E-09  0.1800E+02
     -1.602 -0.4311E-06  0.1800E+02
     -1.504 -0.1919E-03  0.1800E+02
     -1.406 -0.9557E-02  0.1800E+02
     -1.308  0.8623E-02  0.1800E+02
     -1.210  0.4297E+00  0.1804E+02
     -1.112  0.3381E+00  0.1808E+02
     -1.014  0.3697E+00  0.1811E+02
     -0.916  0.1281E+01  0.1824E+02
     -0.818  0.3219E+01  0.1855E+02
     -0.720  0.4972E+01  0.1904E+02
     -0.622  0.6617E+01  0.1969E+02
     -0.524  0.1781E+01  0.1986E+02
     -0.426  0.2177E+01  0.2008E+02
     -0.328  0.4883E+01  0.2055E+02
     -0.230  0.4064E+01  0.2095E+02
     -0.132  0.5550E+01  0.2150E+02
     -0.034  0.3271E+01  0.2182E+02
      0.063  0.1758E+01  0.2199E+02
      0.161  0.3767E+01  0.2236E+02
      0.259  0.3416E+01  0.2269E+02
      0.357  0.1427E+01  0.2283E+02
      0.455  0.1567E+01  0.2299E+02
      0.553  0.3605E+01  0.2334E+02
      0.651  0.3151E+01  0.2365E+02
      0.749  0.8829E+00  0.2373E+02
      0.847  0.8175E+00  0.2381E+02
      0.945  0.1171E+01  0.2393E+02
      1.043  0.2455E+01  0.2417E+02
      1.141  0.1305E+01  0.2430E+02
      1.239  0.1840E+00  0.2432E+02
      1.337  0.1636E+01  0.2448E+02
      1.435  0.2376E+01  0.2471E+02
      1.533  0.1270E+01  0.2483E+02
      1.631  0.2818E+01  0.2511E+02
      1.729  0.2504E+01  0.2535E+02
      1.827  0.2411E+01  0.2559E+02
      1.925  0.9751E+00  0.2569E+02
      2.023  0.6272E+00  0.2575E+02
      2.121  0.1420E+01  0.2589E+02
      2.219  0.5590E+00  0.2594E+02
      2.317  0.4742E+00  0.2599E+02
      2.415  0.1408E+00  0.2600E+02
      2.513  0.2759E-02  0.2600E+02
      2.611  0.9635E-01  0.2601E+02
      2.709  0.5198E+00  0.2606E+02
      2.807  0.6128E+00  0.2612E+02
      2.905  0.5492E+00  0.2618E+02
      3.003  0.7263E+00  0.2625E+02
      3.101  0.1175E+01  0.2636E+02
      3.199  0.7767E+00  0.2644E+02
      3.297  0.3438E+00  0.2647E+02
      3.395  0.1222E+01  0.2659E+02
      3.493  0.1428E+01  0.2673E+02
      3.591  0.1545E+01  0.2688E+02
      3.689  0.1763E+01  0.2706E+02
      3.787  0.1811E+01  0.2723E+02
      3.885  0.1359E+00  0.2725E+02
      3.983  0.1180E+01  0.2736E+02
      4.081  0.3756E+01  0.2773E+02
      4.178  0.3237E+01  0.2805E+02
      4.276  0.2007E+01  0.2824E+02
      4.374  0.7659E+00  0.2832E+02
      4.472  0.7369E+00  0.2839E+02
      4.570  0.1510E+01  0.2854E+02
      4.668  0.4330E+01  0.2896E+02
      4.766  0.3557E+01  0.2931E+02
      4.864  0.1626E+01  0.2947E+02
      4.962  0.1041E+01  0.2957E+02
      5.060  0.1018E+01  0.2967E+02
      5.158  0.1405E+01  0.2981E+02
      5.256  0.6006E+00  0.2987E+02
      5.354  0.1585E+01  0.3002E+02
      5.452  0.2443E+01  0.3026E+02
      5.550  0.1505E+01  0.3041E+02
      5.648  0.4261E+01  0.3083E+02
      5.746  0.2377E+01  0.3106E+02
      5.844  0.3704E+00  0.3110E+02
      5.942  0.1667E+01  0.3126E+02
      6.040  0.1579E+01  0.3142E+02
      6.138  0.1864E+00  0.3143E+02
      6.236 -0.1466E+00  0.3142E+02
      6.334  0.1202E+01  0.3154E+02
      6.432  0.2804E+01  0.3181E+02
      6.530  0.5557E+00  0.3187E+02
      6.628 -0.9652E-01  0.3186E+02
      6.726 -0.1252E-01  0.3186E+02
      6.824  0.3820E+00  0.3189E+02
      6.922  0.5484E+00  0.3195E+02
      7.020  0.4957E+00  0.3200E+02
      7.118  0.5285E-01  0.3200E+02
      7.216 -0.1529E-01  0.3200E+02
      7.314 -0.5061E-03  0.3200E+02
      7.412 -0.1726E-05  0.3200E+02
      7.510 -0.7649E-09  0.3200E+02
      7.608 -0.4683E-13  0.3200E+02
      7.706  0.0000E+00  0.3200E+02
      7.804  0.0000E+00  0.3200E+02
      7.902  0.0000E+00  0.3200E+02
      8.000  0.0000E+00  0.3200E+02
      8.098  0.0000E+00  0.3200E+02
      8.196  0.0000E+00  0.3200E+02
      8.293  0.0000E+00  0.3200E+02
      8.391  0.0000E+00  0.3200E+02
      8.489  0.0000E+00  0.3200E+02
      8.587  0.0000E+00  0.3200E+02
      8.685  0.0000E+00  0.3200E+02
      8.783  0.0000E+00  0.3200E+02
      8.881  0.0000E+00  0.3200E+02
      8.979  0.0000E+00  0.3200E+02
      8.97931935    -20.41354220  301     -3.45169344      1.00000000
    -20.414  0.0000E+00  0.0000E+00  0.0000E+00  0.0000E+00  0.0000E+00  0.0000E+00  0.0000E+00  0.0000E+00  0.0000E+00
    -20.316  0.0000E+00  0.0000E+00  0.0000E+00  0.0000E+00  0.0000E+00  0.0000E+00  0.0000E+00  0.0000E+00  0.0000E+00
    -20.218  0.0000E+00  0.0000E+00  0.0000E+00  0.0000E+00  0.0000E+00  0.0000E+00  0.0000E+00  0.0000E+00  0.0000E+00
    -20.120  0.0000E+00  0.0000E+00  0.0000E+00  0.0000E+00  0.0000E+00  0.0000E+00  0.0000E+00  0.0000E+00  0.0000E+00
    -20.022  0.0000E+00  0.0000E+00  0.0000E+00  0.0000E+00  0.0000E+00  0.0000E+00  0.0000E+00  0.0000E+00  0.0000E+00
    -19.924 -0.3052E-32 -0.1594E-44 -0.6154E-41 -0.7972E-44 -0.4488E-43 -0.1646E-50 -0.9457E-35 -0.4524E-50 -0.1360E-43
    -19.826 -0.1641E-25 -0.2896E-33 -0.3309E-34 -0.8687E-33 -0.3411E-33 -0.3020E-41 -0.5085E-28 -0.9057E-41 -0.1137E-33
    -19.728 -0.1272E-19 -0.1350E-26 -0.2564E-28 -0.4049E-26 -0.1589E-26 -0.1404E-34 -0.3941E-22 -0.4212E-34 -0.5297E-27
    -19.630 -0.1367E-14 -0.9064E-21 -0.2755E-23 -0.2719E-20 -0.1067E-20 -0.9425E-29 -0.4234E-17 -0.2827E-28 -0.3557E-21
    -19.532 -0.2123E-10 -0.8428E-16 -0.4281E-19 -0.2528E-15 -0.9922E-16 -0.8763E-24 -0.6580E-13 -0.2629E-23 -0.3307E-16
    -19.434 -0.4558E-07 -0.1131E-11 -0.9192E-16 -0.3394E-11 -0.1332E-11 -0.1176E-19 -0.1414E-09 -0.3529E-19 -0.4440E-12
    -19.336 -0.1299E-04 -0.2086E-08 -0.2625E-13 -0.6257E-08 -0.2455E-08 -0.2169E-16 -0.4050E-07 -0.6506E-16 -0.8185E-09
    -19.238 -0.4531E-03 -0.4946E-06 -0.9266E-12 -0.1483E-05 -0.5822E-06 -0.5142E-14 -0.1463E-05 -0.1542E-13 -0.1941E-06
    -19.140 -0.8445E-03 -0.1138E-04 -0.2002E-11 -0.3397E-04 -0.1333E-04 -0.1184E-12 -0.3971E-05 -0.3532E-12 -0.4467E-05
    -19.042  0.2301E-01  0.4816E-04  0.4784E-10  0.1710E-03  0.6682E-04  0.4846E-12  0.7784E-04  0.1772E-11  0.1867E-04
    -18.944  0.6779E-01  0.1969E-03  0.1439E-09  0.9156E-03  0.3548E-03  0.1833E-11  0.2432E-03  0.9394E-11  0.7409E-04
    -18.846  0.3751E-01  0.1034E-02  0.8584E-10  0.4539E-03  0.1956E-03  0.1220E-10  0.1610E-03  0.4878E-11  0.4251E-03
    -18.748  0.8696E-01  0.3350E-02  0.2181E-09  0.2704E-02  0.1239E-02  0.4078E-10  0.4525E-03  0.3435E-10  0.1412E-02
    -18.650  0.5947E-01  0.1249E-02  0.1524E-09  0.3332E-02  0.1481E-02  0.1509E-10  0.3231E-03  0.4250E-10  0.5486E-03
    -18.552  0.9275E-02  0.6828E-03  0.2932E-10  0.6969E-03  0.3745E-03  0.1125E-10  0.6987E-04  0.1087E-10  0.3137E-03
    -18.454  0.9645E-01  0.8595E-02  0.3112E-09  0.6464E-02  0.3672E-02  0.1401E-09  0.7467E-03  0.1067E-09  0.3915E-02
    -18.356  0.6726E-01  0.5133E-02  0.2281E-09  0.6507E-02  0.3631E-02  0.8726E-10  0.5505E-03  0.1180E-09  0.2447E-02
    -18.258  0.3928E-01  0.1563E-02  0.1463E-09  0.6714E-02  0.3657E-02  0.2927E-10  0.3611E-03  0.1308E-09  0.9046E-03
    -18.160  0.9752E-02  0.1823E-02 -0.4235E-08  0.7875E-03  0.4809E-03  0.3074E-10  0.1033E-03 -0.2392E-10  0.1000E-02
    -18.062  0.8597E-01  0.1658E-01 -0.2464E-05  0.1164E-01  0.8217E-02 -0.1524E-07  0.1020E-02 -0.4593E-07  0.8927E-02
    -17.964  0.7959E-01  0.1322E-01 -0.2044E-03  0.1366E-01  0.9539E-02 -0.2560E-05  0.9581E-03 -0.6959E-05  0.7050E-02
    -17.866  0.2285E-01  0.2305E-02 -0.1457E-02  0.8024E-02  0.5533E-02 -0.6008E-04  0.3165E-03 -0.9728E-04  0.1624E-02
    -17.768  0.2509E-01  0.2645E-02  0.1342E-01  0.8846E-02  0.6075E-02 -0.8499E-04  0.3507E-03  0.3731E-03  0.1892E-02
    -17.670  0.4798E-01  0.1818E-01  0.4851E-01  0.1250E-01  0.1057E-01  0.3154E-02  0.7968E-03  0.3235E-02  0.1122E-01
    -17.572  0.8181E-01  0.2716E-01  0.5503E-01  0.2939E-01  0.2494E-01  0.7374E-02  0.1376E-02  0.8597E-02  0.1720E-01
    -17.474  0.3251E-01  0.8643E-02  0.5188E-01  0.1606E-01  0.1362E-01  0.1635E-01  0.5530E-03  0.1641E-01  0.5831E-02
    -17.376  0.1814E-01  0.4442E-02  0.4787E-01  0.1404E-01  0.1195E-01  0.1654E-01  0.3252E-03  0.2318E-01  0.3983E-02
    -17.278  0.4835E-01  0.3455E-01  0.4669E-01  0.3283E-01  0.3080E-01  0.3681E-01  0.9991E-03  0.3301E-01  0.2567E-01
    -17.180  0.6315E-01  0.4100E-01  0.4442E-01  0.5716E-01  0.5518E-01  0.3408E-01  0.1252E-02  0.4521E-01  0.3160E-01
    -17.082  0.2993E-01  0.2070E-01  0.3765E-01  0.4876E-01  0.4791E-01  0.5571E-01  0.5256E-03  0.6376E-01  0.1897E-01
    -16.984  0.3595E-01  0.5370E-01  0.3983E-01  0.7453E-01  0.7308E-01  0.6691E-01  0.7439E-03  0.9097E-01  0.4635E-01
    -16.886  0.1269E-01  0.3502E-01  0.3224E-01  0.4031E-01  0.3848E-01  0.1102E+00  0.2914E-03  0.1619E+00  0.3080E-01
    -16.788  0.1275E-02  0.2125E-01  0.2906E-01  0.2135E-01  0.1992E-01  0.1516E+00  0.3312E-04  0.2482E+00  0.1967E-01
    -16.690 -0.9401E-04  0.1361E-02  0.1019E-01  0.7651E-03  0.7282E-03  0.1340E+00 -0.1599E-05  0.1744E+00  0.1243E-02
    -16.592 -0.5453E-04 -0.6014E-03  0.8699E-03 -0.5625E-03 -0.5296E-03  0.4930E-01 -0.1339E-05  0.4858E-01 -0.5501E-03
    -16.494 -0.1303E-05 -0.1832E-04 -0.2515E-03 -0.1579E-04 -0.1491E-04 -0.1737E-02 -0.3346E-07 -0.3003E-02 -0.1671E-04
    -16.397 -0.4013E-08 -0.6192E-07 -0.2181E-04 -0.5185E-07 -0.4901E-07 -0.1027E-02 -0.1054E-09 -0.1004E-02 -0.5642E-07
    -16.299 -0.1887E-11 -0.2960E-10 -0.2991E-06 -0.2461E-10 -0.2323E-10 -0.2059E-04 -0.5254E-13 -0.1838E-04 -0.2692E-10
    -16.201 -0.4559E-15 -0.6340E-14 -0.6293E-09 -0.5380E-14 -0.5004E-14 -0.5027E-07 -0.1787E-16 -0.4273E-07 -0.5679E-14
    -16.103 -0.1091E-18 -0.1538E-17 -0.1941E-12 -0.1293E-17 -0.1196E-17 -0.1669E-10 -0.4730E-20 -0.1379E-10 -0.1368E-17
    -16.005 -0.4914E-23 -0.7197E-22 -0.8695E-17 -0.5985E-22 -0.5539E-22 -0.7789E-15 -0.2141E-24 -0.6334E-15 -0.6399E-22
    -15.907  0.0000E+00  0.0000E+00  0.0000E+00  0.0000E+00  0.0000E+00  0.0000E+00  0.0000E+00  0.0000E+00  0.0000E+00
    -15.809  0.0000E+00  0.0000E+00  0.0000E+00  0.0000E+00  0.0000E+00  0.0000E+00  0.0000E+00  0.0000E+00  0.0000E+00
    -15.711  0.0000E+00  0.0000E+00  0.0000E+00  0.0000E+00  0.0000E+00  0.0000E+00  0.0000E+00  0.0000E+00  0.0000E+00
    -15.613  0.0000E+00  0.0000E+00  0.0000E+00  0.0000E+00  0.0000E+00  0.0000E+00  0.0000E+00  0.0000E+00  0.0000E+00
    -15.515  0.0000E+00  0.0000E+00  0.0000E+00  0.0000E+00  0.0000E+00  0.0000E+00  0.0000E+00  0.0000E+00  0.0000E+00
    -15.417  0.0000E+00  0.0000E+00  0.0000E+00  0.0000E+00  0.0000E+00  0.0000E+00  0.0000E+00  0.0000E+00  0.0000E+00
    -15.319  0.0000E+00  0.0000E+00  0.0000E+00  0.0000E+00  0.0000E+00  0.0000E+00  0.0000E+00  0.0000E+00  0.0000E+00
    -15.221  0.0000E+00  0.0000E+00  0.0000E+00  0.0000E+00  0.0000E+00  0.0000E+00  0.0000E+00  0.0000E+00  0.0000E+00
    -15.123  0.0000E+00  0.0000E+00  0.0000E+00  0.0000E+00  0.0000E+00  0.0000E+00  0.0000E+00  0.0000E+00  0.0000E+00
    -15.025  0.0000E+00  0.0000E+00  0.0000E+00  0.0000E+00  0.0000E+00  0.0000E+00  0.0000E+00  0.0000E+00  0.0000E+00
    -14.927  0.0000E+00  0.0000E+00  0.0000E+00  0.0000E+00  0.0000E+00  0.0000E+00  0.0000E+00  0.0000E+00  0.0000E+00
    -14.829  0.0000E+00  0.0000E+00  0.0000E+00  0.0000E+00  0.0000E+00  0.0000E+00  0.0000E+00  0.0000E+00  0.0000E+00
    -14.731  0.0000E+00  0.0000E+00  0.0000E+00  0.0000E+00  0.0000E+00  0.0000E+00  0.0000E+00  0.0000E+00  0.0000E+00
    -14.633  0.0000E+00  0.0000E+00  0.0000E+00  0.0000E+00  0.0000E+00  0.0000E+00  0.0000E+00  0.0000E+00  0.0000E+00
    -14.535  0.0000E+00  0.0000E+00  0.0000E+00  0.0000E+00  0.0000E+00  0.0000E+00  0.0000E+00  0.0000E+00  0.0000E+00
    -14.437  0.0000E+00  0.0000E+00  0.0000E+00  0.0000E+00  0.0000E+00  0.0000E+00  0.0000E+00  0.0000E+00  0.0000E+00
    -14.339  0.0000E+00  0.0000E+00  0.0000E+00  0.0000E+00  0.0000E+00  0.0000E+00  0.0000E+00  0.0000E+00  0.0000E+00
    -14.241  0.0000E+00  0.0000E+00  0.0000E+00  0.0000E+00  0.0000E+00  0.0000E+00  0.0000E+00  0.0000E+00  0.0000E+00
    -14.143  0.0000E+00  0.0000E+00  0.0000E+00  0.0000E+00  0.0000E+00  0.0000E+00  0.0000E+00  0.0000E+00  0.0000E+00
    -14.045  0.0000E+00  0.0000E+00  0.0000E+00  0.0000E+00  0.0000E+00  0.0000E+00  0.0000E+00  0.0000E+00  0.0000E+00
    -13.947  0.0000E+00  0.0000E+00  0.0000E+00  0.0000E+00  0.0000E+00  0.0000E+00  0.0000E+00  0.0000E+00  0.0000E+00
    -13.849  0.0000E+00  0.0000E+00  0.0000E+00  0.0000E+00  0.0000E+00  0.0000E+00  0.0000E+00  0.0000E+00  0.0000E+00
    -13.751  0.0000E+00  0.0000E+00  0.0000E+00  0.0000E+00  0.0000E+00  0.0000E+00  0.0000E+00  0.0000E+00  0.0000E+00
    -13.653  0.0000E+00  0.0000E+00  0.0000E+00  0.0000E+00  0.0000E+00  0.0000E+00  0.0000E+00  0.0000E+00  0.0000E+00
    -13.555  0.0000E+00  0.0000E+00  0.0000E+00  0.0000E+00  0.0000E+00  0.0000E+00  0.0000E+00  0.0000E+00  0.0000E+00
    -13.457  0.0000E+00  0.0000E+00  0.0000E+00  0.0000E+00  0.0000E+00  0.0000E+00  0.0000E+00  0.0000E+00  0.0000E+00
    -13.359  0.0000E+00  0.0000E+00  0.0000E+00  0.0000E+00  0.0000E+00  0.0000E+00  0.0000E+00  0.0000E+00  0.0000E+00
    -13.261  0.0000E+00  0.0000E+00  0.0000E+00  0.0000E+00  0.0000E+00  0.0000E+00  0.0000E+00  0.0000E+00  0.0000E+00
    -13.163  0.0000E+00  0.0000E+00  0.0000E+00  0.0000E+00  0.0000E+00  0.0000E+00  0.0000E+00  0.0000E+00  0.0000E+00
    -13.065  0.0000E+00  0.0000E+00  0.0000E+00  0.0000E+00  0.0000E+00  0.0000E+00  0.0000E+00  0.0000E+00  0.0000E+00
    -12.967  0.0000E+00  0.0000E+00  0.0000E+00  0.0000E+00  0.0000E+00  0.0000E+00  0.0000E+00  0.0000E+00  0.0000E+00
    -12.869  0.0000E+00  0.0000E+00  0.0000E+00  0.0000E+00  0.0000E+00  0.0000E+00  0.0000E+00  0.0000E+00  0.0000E+00
    -12.771  0.0000E+00  0.0000E+00  0.0000E+00  0.0000E+00  0.0000E+00  0.0000E+00  0.0000E+00  0.0000E+00  0.0000E+00
    -12.673  0.0000E+00  0.0000E+00  0.0000E+00  0.0000E+00  0.0000E+00  0.0000E+00  0.0000E+00  0.0000E+00  0.0000E+00
    -12.575  0.0000E+00  0.0000E+00  0.0000E+00  0.0000E+00  0.0000E+00  0.0000E+00  0.0000E+00  0.0000E+00  0.0000E+00
    -12.477  0.0000E+00  0.0000E+00  0.0000E+00  0.0000E+00  0.0000E+00  0.0000E+00  0.0000E+00  0.0000E+00  0.0000E+00
    -12.379  0.0000E+00  0.0000E+00  0.0000E+00  0.0000E+00  0.0000E+00  0.0000E+00  0.0000E+00  0.0000E+00  0.0000E+00
    -12.282  0.0000E+00  0.0000E+00  0.0000E+00  0.0000E+00  0.0000E+00  0.0000E+00  0.0000E+00  0.0000E+00  0.0000E+00
    -12.184  0.0000E+00  0.0000E+00  0.0000E+00  0.0000E+00  0.0000E+00  0.0000E+00  0.0000E+00  0.0000E+00  0.0000E+00
    -12.086  0.0000E+00  0.0000E+00  0.0000E+00  0.0000E+00  0.0000E+00  0.0000E+00  0.0000E+00  0.0000E+00  0.0000E+00
    -11.988  0.0000E+00  0.0000E+00  0.0000E+00  0.0000E+00  0.0000E+00  0.0000E+00  0.0000E+00  0.0000E+00  0.0000E+00
    -11.890  0.0000E+00  0.0000E+00  0.0000E+00  0.0000E+00  0.0000E+00  0.0000E+00  0.0000E+00  0.0000E+00  0.0000E+00
    -11.792  0.0000E+00  0.0000E+00  0.0000E+00  0.0000E+00  0.0000E+00  0.0000E+00  0.0000E+00  0.0000E+00  0.0000E+00
    -11.694  0.0000E+00  0.0000E+00  0.0000E+00  0.0000E+00  0.0000E+00  0.0000E+00  0.0000E+00  0.0000E+00  0.0000E+00
    -11.596  0.0000E+00  0.0000E+00  0.0000E+00  0.0000E+00  0.0000E+00  0.0000E+00  0.0000E+00  0.0000E+00  0.0000E+00
    -11.498  0.0000E+00  0.0000E+00  0.0000E+00  0.0000E+00  0.0000E+00  0.0000E+00  0.0000E+00  0.0000E+00  0.0000E+00
    -11.400  0.0000E+00  0.0000E+00  0.0000E+00  0.0000E+00  0.0000E+00  0.0000E+00  0.0000E+00  0.0000E+00  0.0000E+00
    -11.302  0.0000E+00  0.0000E+00  0.0000E+00  0.0000E+00  0.0000E+00  0.0000E+00  0.0000E+00  0.0000E+00  0.0000E+00
    -11.204  0.0000E+00  0.0000E+00  0.0000E+00  0.0000E+00  0.0000E+00  0.0000E+00  0.0000E+00  0.0000E+00  0.0000E+00
    -11.106  0.0000E+00  0.0000E+00  0.0000E+00  0.0000E+00  0.0000E+00  0.0000E+00  0.0000E+00  0.0000E+00  0.0000E+00
    -11.008  0.0000E+00  0.0000E+00  0.0000E+00  0.0000E+00  0.0000E+00  0.0000E+00  0.0000E+00  0.0000E+00  0.0000E+00
    -10.910  0.0000E+00  0.0000E+00  0.0000E+00  0.0000E+00  0.0000E+00  0.0000E+00  0.0000E+00  0.0000E+00  0.0000E+00
    -10.812  0.0000E+00  0.0000E+00  0.0000E+00  0.0000E+00  0.0000E+00  0.0000E+00  0.0000E+00  0.0000E+00  0.0000E+00
    -10.714 -0.1889E-31 -0.9410E-33 -0.7924E-40 -0.2823E-32 -0.1137E-31 -0.4550E-40 -0.4026E-32 -0.1365E-39 -0.3791E-32
    -10.616 -0.1001E-24 -0.4988E-26 -0.4200E-33 -0.1496E-25 -0.6027E-25 -0.2412E-33 -0.2134E-25 -0.7233E-33 -0.2009E-25
    -10.518 -0.7649E-19 -0.3812E-20 -0.3209E-27 -0.1143E-19 -0.4604E-19 -0.1844E-27 -0.1631E-19 -0.5527E-27 -0.1535E-19
    -10.420 -0.8112E-14 -0.4044E-15 -0.3404E-22 -0.1213E-14 -0.4881E-14 -0.1957E-22 -0.1730E-14 -0.5864E-22 -0.1627E-14
    -10.322 -0.1246E-09 -0.6218E-11 -0.5230E-18 -0.1862E-10 -0.7490E-10 -0.3015E-18 -0.2657E-10 -0.9014E-18 -0.2497E-10
    -10.224 -0.2658E-06 -0.1331E-07 -0.1117E-14 -0.3974E-07 -0.1593E-06 -0.6490E-15 -0.5675E-07 -0.1928E-14 -0.5312E-07
    -10.126 -0.7545E-04 -0.3816E-05 -0.3182E-12 -0.1129E-04 -0.4485E-04 -0.1891E-12 -0.1618E-04 -0.5521E-12 -0.1496E-04
    -10.028 -0.2405E-02 -0.1255E-03 -0.1025E-10 -0.3604E-03 -0.1387E-02 -0.6544E-11 -0.5262E-03 -0.1808E-10 -0.4636E-03
     -9.930  0.5376E-02  0.2483E-03  0.2225E-10  0.8177E-03  0.3688E-02  0.9037E-11  0.8048E-03  0.3521E-10  0.1204E-02
     -9.832  0.9287E-01  0.5222E-02  0.3990E-09  0.1380E-01  0.5108E-01  0.8008E-11  0.1927E-01  0.3894E-09  0.1660E-01
     -9.734  0.9889E-01  0.4737E-02 -0.3995E-08  0.1467E-01  0.4843E-01 -0.5244E-06  0.3388E-01 -0.5976E-06  0.1832E-01
     -9.636  0.1616E+00  0.2243E-02 -0.1092E-05  0.2580E-01  0.9359E-01 -0.1284E-03  0.1152E+00 -0.1463E-03  0.4669E-01
     -9.538  0.1852E+00  0.6371E-02 -0.3069E-04  0.3159E-01  0.1229E+00 -0.3144E-02  0.1168E+00 -0.3562E-02  0.5379E-01
     -9.440  0.1493E+00  0.9291E-02 -0.1831E-04  0.2665E-01  0.5752E-01  0.1225E-01  0.1006E+00  0.1466E-01  0.3577E-01
     -9.342  0.1712E+00  0.7062E-02  0.1329E-02  0.4553E-01  0.1469E+00  0.1010E+00  0.2052E+00  0.1122E+00  0.1197E+00
     -9.244  0.1338E+00  0.3119E-02  0.4362E-02  0.4993E-01  0.1941E+00  0.1120E+00  0.1342E+00  0.1032E+00  0.1451E+00
     -9.146  0.1987E+00  0.2568E-01  0.3083E-02  0.7119E-01  0.1938E+00  0.6394E-01  0.2295E+00  0.7993E-01  0.2060E+00
     -9.048  0.2135E+00  0.4293E-01  0.2040E-01  0.8787E-01  0.3152E+00  0.1727E+00  0.3949E+00  0.2762E+00  0.3052E+00
     -8.950  0.3585E-01  0.2488E-01  0.3461E-01  0.3893E-01  0.2138E+00  0.1311E+00  0.2069E+00  0.2114E+00  0.1995E+00
     -8.852  0.1342E-01  0.9347E-02  0.3277E-01  0.7556E-02  0.2732E-01  0.3965E-01  0.5323E-01  0.6433E-01  0.5505E-01
     -8.754  0.6399E-01  0.3396E-02  0.5677E-01  0.7457E-02 -0.1393E-02  0.3149E-01  0.4665E-01  0.1099E+00  0.5833E-02
     -8.656  0.1590E-01  0.8548E-03  0.8346E-01  0.1959E-02  0.5530E-03  0.9761E-01  0.1199E-01  0.4000E+00  0.1805E-02
     -8.558 -0.2530E-02 -0.1607E-03  0.3133E-01 -0.3300E-03 -0.1642E-03  0.9909E-01 -0.2033E-02  0.3107E+00 -0.4430E-03
     -8.460 -0.1424E-03 -0.8944E-05  0.1855E-01 -0.1851E-04 -0.9002E-05  0.2260E-01 -0.1140E-03  0.5808E-01 -0.2432E-04
     -8.362 -0.1007E-05 -0.8480E-06  0.1464E-01 -0.2277E-05 -0.1184E-04  0.1291E-01 -0.8331E-05  0.3009E-01 -0.4134E-05
     -8.264 -0.3094E-04 -0.8474E-04  0.1408E-01 -0.2199E-03 -0.1193E-02  0.3513E-02 -0.7808E-03  0.9680E-01 -0.4075E-03
     -8.167 -0.6760E-03 -0.9019E-03  0.3288E-01 -0.1792E-02 -0.9113E-02  0.8796E-02 -0.6227E-02  0.2150E+00 -0.3157E-02
     -8.069 -0.3092E-02  0.3454E-02  0.5929E-02  0.1275E-01  0.7706E-01  0.3630E-02  0.4777E-01  0.6717E-01  0.2577E-01
     -7.971  0.2837E-01  0.3758E-01  0.2057E-01  0.6311E-01  0.3089E+00  0.2777E-01  0.2213E+00  0.3008E+00  0.1054E+00
     -7.873  0.2105E+00  0.9446E-01  0.1881E-01  0.1278E+00  0.3779E+00  0.4002E-01  0.3330E+00  0.1839E+00  0.1583E+00
     -7.775  0.4420E+00  0.1046E+00  0.2957E-02  0.1300E+00  0.2562E+00  0.8703E-02  0.2332E+00  0.1454E-01  0.1847E+00
     -7.677  0.3177E+00  0.8266E-01 -0.9504E-03  0.5369E-01  0.2637E+00 -0.2038E-02  0.1090E+00 -0.1133E-01  0.1498E+00
     -7.579  0.1008E+00  0.3071E-01  0.1076E-01  0.1342E-01  0.1272E+00  0.1802E-01  0.1909E-01  0.1981E+00  0.7096E-01
     -7.481  0.9859E-01  0.2740E-01  0.1121E-01  0.2410E-01  0.1734E+00  0.1743E-01  0.5912E-02  0.2061E+00  0.2079E+00
     -7.383  0.3964E-01  0.2035E-01 -0.1514E-03  0.1451E-01  0.9660E-01  0.5053E-03  0.4850E-02 -0.3949E-02  0.1103E+00
     -7.285 -0.5350E-02 -0.9921E-03  0.4954E-02 -0.1242E-02 -0.1491E-01  0.5549E-01 -0.4331E-03  0.1296E+00 -0.1185E-01
     -7.187  0.7427E-02  0.1467E-03  0.1308E-01  0.1305E-02  0.5166E-01  0.1327E+00  0.3974E-03  0.1877E+00  0.1438E-01
     -7.089  0.2438E-01  0.8222E-03  0.5768E-01  0.3552E-02  0.1658E+00  0.7194E+00  0.7291E-03  0.5357E-01  0.5063E-01
     -6.991  0.1888E-01  0.2048E-02  0.1357E+00  0.6272E-02  0.6888E-01  0.1200E+01 -0.2252E-03  0.1553E+00  0.1384E+00
     -6.893  0.3827E-01  0.3884E-01  0.9037E-01  0.5548E-01  0.4813E-01  0.1084E+01  0.4341E-01  0.4256E+00  0.1610E+00
     -6.795  0.2618E-01  0.5649E-01  0.7090E-01  0.5958E-01 -0.4264E-03  0.7761E+00  0.7410E-01  0.2748E+00  0.2119E-01
     -6.697  0.1886E-02  0.4748E-02  0.1643E-01  0.4065E-02  0.1514E-01  0.1843E+00  0.6574E-02  0.3684E-01  0.4334E-02
     -6.599  0.5236E-02 -0.1685E-02 -0.1630E-02  0.7663E-03  0.2006E+00  0.2994E+00 -0.4539E-02  0.9532E-01  0.6515E-01
     -6.501  0.4127E-02  0.6718E-02  0.1003E-02  0.5255E-02  0.9534E-01  0.4257E+00  0.1441E-01  0.1890E+00  0.3167E-01
     -6.403  0.5798E-02  0.3151E-01  0.9125E-03  0.1943E-01  0.3590E-01  0.1894E+00  0.7066E-01  0.7221E-01  0.5030E-01
     -6.305  0.1473E-02  0.1116E-01  0.2111E-02  0.6083E-02  0.8651E-01  0.9962E-01  0.1753E-01  0.3201E-01  0.2057E+00
     -6.207 -0.7257E-03  0.6429E-03  0.1105E-02 -0.7418E-03  0.5155E-01  0.7462E-01 -0.4266E-02  0.4701E-01  0.1486E+00
     -6.109 -0.1712E-02  0.5835E-03  0.2921E-02  0.6400E-03  0.1747E+00  0.3639E+00 -0.5416E-02  0.2039E+00  0.5290E-01
     -6.011  0.3254E-01  0.6681E-01  0.1843E-02  0.6739E-01  0.1781E+00  0.2441E+00  0.1014E+00  0.1086E+00  0.2400E+00
     -5.913  0.4277E-01  0.8294E-01  0.1597E-01  0.8297E-01  0.3032E-01  0.9292E-01  0.1445E+00  0.1463E+00  0.1660E+00
     -5.815  0.1220E-01  0.6218E-01  0.1584E-01  0.2973E-01  0.1848E+00  0.6790E-01  0.1246E+00  0.1100E+00  0.2050E+00
     -5.717  0.6806E-02  0.4926E-01  0.1724E-01  0.2202E-01  0.2428E+00  0.3009E-01  0.7916E-01  0.7034E-01  0.2120E+00
     -5.619  0.1561E-02  0.2200E-01  0.1163E+00  0.1239E-01  0.1270E+00  0.3017E+00  0.2205E-01  0.5640E+00  0.1318E+00
     -5.521  0.2169E-02  0.3178E-01  0.1122E+00  0.1013E-01  0.1034E+00  0.2652E+00  0.2134E-01  0.5544E+00  0.2417E+00
     -5.423  0.3764E-02  0.3625E-01  0.2230E-01  0.1001E-01  0.8631E-01 -0.2433E-02  0.3447E-01  0.5375E-01  0.1918E+00
     -5.325  0.1088E-01  0.3068E-01  0.1106E+00  0.2097E-01  0.1579E-01  0.1434E-01  0.7148E-01  0.1812E+00  0.1174E+00
     -5.227  0.1457E-01  0.4275E-01  0.1198E+00  0.3564E-01  0.1904E-01  0.1998E+00  0.8796E-01  0.2157E+00  0.1331E+00
     -5.129  0.1889E-01  0.7731E-01  0.3697E-02  0.6934E-01  0.5462E-01  0.1341E+00  0.1006E+00  0.5532E-01  0.1797E+00