    3    3    1    1
  0.6796390E+02  0.3189484E-09  0.3189484E-09  0.2314344E-08  0.5000000E-15
  1.000000000000000E-004
  CAR 
 unknown system                          
     18     84     16
 
  0.0000000E+00  0.0000000E+00  0.0000000E+00  0.5917160E-02
    1      -19.077503   1.000000
    2      -17.779248   1.000000
    3       -9.746953   1.000000
    4       -6.410192   1.000000
    5       -6.410185   1.000000
    6       -5.538799   1.000000
    7       -5.085529   1.000000
    8       -5.085475   1.000000
    9       -3.543823   1.013621
   10        0.038677   0.000000
   11        0.038727   0.000000
   12        0.238441   0.000000
   13        0.238466   0.000000
   14        2.541498   0.000000
   15        2.701735   0.000000
   16        3.203520   0.000000
 
  0.7692308E-01  0.0000000E+00  0.0000000E+00  0.3550296E-01
    1      -18.986760   1.000000
    2      -17.734519   1.000000
    3       -9.636476   1.000000
    4       -6.625182   1.000000
    5       -6.308658   1.000000
    6       -5.947492   1.000000
    7       -5.241807   1.000000
    8       -4.841056   1.000000
    9       -3.595701   1.030536
   10       -0.091295   0.000000
   11       -0.023859   0.000000
   12        0.127332   0.000000
   13        0.202316   0.000000
   14        2.690557   0.000000
   15        2.820226   0.000000
   16        3.340391   0.000000
 
  0.1538462E+00  0.0000000E+00  0.0000000E+00  0.3550296E-01
    1      -18.725586   1.000000
    2      -17.606165   1.000000
    3       -9.346857   1.000000
    4       -7.147944   1.000000
    5       -6.577792   1.000000
    6       -6.022812   1.000000
    7       -5.625253   1.000000
    8       -4.759948   1.000000
    9       -3.808164   1.000003
   10       -0.475607   0.000000
   11       -0.186917   0.000000
   12       -0.140906   0.000000
   13        0.591384   0.000000
   14        3.055808   0.000000
   15        3.166424   0.000000
   16        3.700724   0.000000
 
  0.2307692E+00  0.0000000E+00  0.0000000E+00  0.3550296E-01
    1      -18.328660   1.000000
    2      -17.412681   1.000000
    3       -9.060128   1.000000
    4       -7.689605   1.000000
    5       -7.250698   1.000000
    6       -6.080379   1.000000
    7       -5.610693   1.000000
    8       -4.988570   1.000000
    9       -4.211795   1.000000
   10       -0.689645   0.000000
   11       -0.431065   0.000000
   12        0.061188   0.000000
   13        1.017884   0.000000
   14        3.588854   0.000000
   15        3.720619   0.000000
   16        4.259037   0.000000
 
  0.3076923E+00  0.0000000E+00  0.0000000E+00  0.3550296E-01
    1      -17.859560   1.000000
    2      -17.187956   1.000000
    3       -9.169770   1.000000
    4       -7.913849   1.000000
    5       -7.897809   1.000000
    6       -6.491784   1.000000
    7       -5.310218   1.000000
    8       -5.169818   1.000000
    9       -4.550856   1.000000
   10       -0.626280   0.000000
   11       -0.599269   0.000000
   12        0.542764   0.000000
   13        1.353925   0.000000
   14        4.241289   0.000000
   15        4.436559   0.000000
   16        5.011750   0.000000
 
  0.3846154E+00  0.0000000E+00  0.0000000E+00  0.3550296E-01
    1      -17.419000   1.000000
    2      -16.982736   1.000000
    3       -9.575829   1.000000
    4       -8.467320   1.000000
    5       -7.957816   1.000000
    6       -6.793644   1.000000
    7       -5.551256   1.000000
    8       -4.815195   1.000000
    9       -4.520365   1.000000
   10       -0.680931   0.000000
   11       -0.351888   0.000000
   12        1.000938   0.000000
   13        1.561409   0.000000
   14        4.458576   0.000000
   15        5.121706   0.000000
   16        5.165685   0.000000
 
  0.4615385E+00  0.0000000E+00  0.0000000E+00  0.3550296E-01
    1      -17.141659   1.000000
    2      -16.857528   1.000000
    3       -9.868481   1.000000
    4       -8.786453   1.000000
    5       -8.057998   1.000000
    6       -6.951846   1.000000
    7       -5.669290   1.000000
    8       -4.626741   1.000000
    9       -4.302794   1.000000
   10       -0.655224   0.000000
   11       -0.123427   0.000000
   12        1.252512   0.000000
   13        1.654998   0.000000
   14        3.720854   0.000000
   15        5.371609   0.000000
   16        5.643423   0.000000
 
  0.7692308E-01  0.7692308E-01  0.0000000E+00  0.3550296E-01
    1      -18.810719   1.000000
    2      -17.647892   1.000000
    3       -9.434231   1.000000
    4       -6.987689   1.000000
    5       -6.371015   1.000000
    6       -6.122019   1.000000
    7       -5.603133   1.000000
    8       -4.674522   1.000000
    9       -3.728498   1.000334
   10       -0.363108   0.000000
   11       -0.238030   0.000000
   12       -0.073309   0.000000
   13        0.510867   0.000000
   14        2.943326   0.000000
   15        3.052788   0.000000
   16        3.586286   0.000000
 
  0.1538462E+00  0.7692308E-01  0.0000000E+00  0.7100592E-01
    1      -18.481015   1.000000
    2      -17.486281   1.000000
    3       -9.125422   1.000000
    4       -7.505218   1.000000
    5       -6.918784   1.000000
    6       -6.161344   1.000000
    7       -5.808755   1.000000
    8       -4.696087   1.000000
    9       -4.044999   1.000000
   10       -0.698736   0.000000
   11       -0.324316   0.000000
   12       -0.211679   0.000000
   13        0.963225   0.000000
   14        3.393001   0.000000
   15        3.505171   0.000000
   16        4.045322   0.000000
 
  0.2307692E+00  0.7692308E-01  0.0000000E+00  0.7100592E-01
    1      -18.045634   1.000000
    2      -17.274987   1.000000
    3       -9.015594   1.000000
    4       -7.835031   1.000000
    5       -7.576827   1.000000
    6       -6.602551   1.000000
    7       -5.499450   1.000000
    8       -4.969716   1.000000
    9       -4.401846   1.000000
   10       -0.827042  -0.000000
   11       -0.442065   0.000000
   12        0.130234   0.000000
   13        1.356920   0.000000
   14        4.003600   0.000000
   15        4.149566   0.000000
   16        4.705505   0.000000
 
  0.3076923E+00  0.7692308E-01  0.0000000E+00  0.7100592E-01
    1      -17.585140   1.000000
    2      -17.055697   1.000000
    3       -9.321593   1.000000
    4       -8.235900   1.000000
    5       -7.873584   1.000000
    6       -6.852978   1.000000
    7       -5.330769   1.000000
    8       -5.314056   1.000000
    9       -4.425846   1.000000
   10       -0.757564  -0.000000
   11       -0.387855   0.000000
   12        0.616183   0.000000
   13        1.584849   0.000000
   14        4.640445   0.000000
   15        4.913782   0.000000
   16        5.401215   0.000000
 
  0.3846154E+00  0.7692308E-01  0.0000000E+00  0.7100592E-01
    1      -17.217550   1.000000
    2      -16.885206   1.000000
    3       -9.672096   1.000000
    4       -8.715024   1.000000
    5       -7.972076   1.000000
    6       -6.970515   1.000000
    7       -5.574102   1.000000
    8       -5.189556   1.000000
    9       -4.185887   1.000000
   10       -0.658959   0.000000
   11       -0.189160   0.000000
   12        1.060945   0.000000
   13        1.599964   0.000000
   14        4.140161   0.000000
   15        5.580823   0.000000
   16        5.616589   0.000000
 
  0.4615385E+00  0.7692308E-01  0.0000000E+00  0.3550296E-01
    1      -17.073955   1.000000
    2      -16.820009   1.000000
    3       -9.814776   1.000000
    4       -8.889729   1.000000
    5       -8.043084   1.000000
    6       -7.003354   1.000000
    7       -5.669399   1.000000
    8       -5.119434   1.000000
    9       -4.039577   1.000000
   10       -0.644753   0.000000
   11       -0.038271   0.000000
   12        1.337104   0.000000
   13        1.469908   0.000000
   14        3.698841   0.000000
   15        5.873318   0.000000
   16        6.015595   0.000000
 
  0.1538462E+00  0.1538462E+00  0.0000000E+00  0.3550296E-01
    1      -18.111125   1.000000
    2      -17.305175   1.000000
    3       -8.953297   1.000000
    4       -7.782443   1.000000
    5       -7.309378   1.000000
    6       -6.867864   1.000000
    7       -5.680429   1.000000
    8       -4.724198   1.000000
    9       -4.330594   1.000000
   10       -0.919972  -0.000000
   11       -0.382471   0.000000
   12       -0.130744   0.000000
   13        1.407517   0.000000
   14        3.928140   0.000000
   15        4.053293   0.000000
   16        4.608344   0.000000
 
  0.2307692E+00  0.1538462E+00  0.0000000E+00  0.7100592E-01
    1      -17.678098   1.000000
    2      -17.094109   1.000000
    3       -9.090889   1.000000
    4       -8.012697   1.000000
    5       -7.759382   1.000000
    6       -7.106788   1.000000
    7       -5.836200   1.000000
    8       -4.997370   1.000000
    9       -4.378024   1.000000
   10       -0.890762  -0.000000
   11       -0.330020   0.000000
   12        0.175499   0.000000
   13        1.703790   0.000000
   14        4.597088   0.000000
   15        4.772543   0.000000
   16        5.370398   0.000000
 
  0.3076923E+00  0.1538462E+00  0.0000000E+00  0.7100592E-01
    1      -17.277421   1.000000
    2      -16.900591   1.000000
    3       -9.353492   1.000000
    4       -8.654906   1.000000
    5       -7.781717   1.000000
    6       -7.100224   1.000000
    7       -5.997714   1.000000
    8       -5.372426   1.000000
    9       -4.162967   1.000000
   10       -0.699885   0.000000
   11       -0.199523   0.000000
   12        0.556576   0.000000
   13        1.804415   0.000000
   14        4.751619   0.000000
   15        5.585409   0.000000
   16        5.670102   0.000000
 
  0.3846154E+00  0.1538462E+00  0.0000000E+00  0.7100592E-01
    1      -17.029291   1.000000
    2      -16.782092   1.000000
    3       -9.519869   1.000000
    4       -9.015693   1.000000
    5       -7.933033   1.000000
    6       -7.028758   1.000000
    7       -6.005914   1.000000
    8       -5.650486   1.000000
    9       -3.895415   1.000000
   10       -0.742307  -0.000000
   11        0.112653   0.000000
   12        0.828253   0.000000
   13        1.772551   0.000000
   14        4.055869   0.000000
   15        6.360903   0.000000
   16        6.406602   0.000000
 
  0.2307692E+00  0.2307692E+00  0.0000000E+00  0.3550296E-01
    1      -17.300094   1.000000
    2      -16.905311   1.000000
    3       -9.185656   1.000000
    4       -8.625189   1.000000
    5       -7.608253   1.000000
    6       -7.179031   1.000000
    7       -6.449257   1.000000
    8       -5.262242   1.000000
    9       -4.177176   1.000000
   10       -0.732873  -0.000000
   11       -0.188956   0.000000
   12        0.319408   0.000000
   13        1.921837   0.000000
   14        5.089034   0.000000
   15        5.540580   0.000000
   16        5.720106   0.000000
 
  0.3076923E+00  0.2307692E+00  0.0000000E+00  0.7100592E-01
    1      -17.009013   1.000000
    2      -16.757744   1.000000
    3       -9.176508   1.000000
    4       -9.104259   1.000000
    5       -7.701338   1.000000
    6       -7.033968   1.000000
    7       -6.861536   1.000000
    8       -5.626694   1.000000
    9       -3.849339   1.000000
   10       -0.872055  -0.000000
   11        0.234530   0.000000
   12        0.445987   0.000000
   13        2.059931   0.000000
   14        4.630018   0.000000
   15        5.927080   0.000000
   16        6.341601   0.000000
 
  0.3846154E+00  0.2307692E+00  0.0000000E+00  0.3550296E-01
    1      -16.898478   1.000000
    2      -16.701141   1.000000
    3       -9.279781   1.000000
    4       -9.126911   1.000000
    5       -7.878456   1.000000
    6       -6.934883   1.000000
    7       -6.920137   1.000000
    8       -5.821187   1.000000
    9       -3.646848   1.009353
   10       -1.043989  -0.000000
   11        0.488737   0.000000
   12        0.506911   0.000000
   13        2.112217   0.000000
   14        4.268428   0.000000
   15        5.958276   0.000000
   16        6.818786   0.000000
 
  0.3076923E+00  0.3076923E+00  0.0000000E+00  0.3550296E-01
    1      -16.852137   1.000000
    2      -16.670111   1.000000
    3       -9.383755   1.000000
    4       -8.800949   1.000000
    5       -7.831952   1.000000
    6       -7.485243   1.000000
    7       -6.831614   1.000000
    8       -5.926703   1.000000
    9       -3.521062   0.957503
   10       -1.223556  -0.000000
   11        0.347701   0.000000
   12        0.680950   0.000000
   13        2.274898   0.000000
   14        4.595468   0.000000
   15        5.313115   0.000000
   16        6.954808   0.000000
 
  0.0000000E+00  0.0000000E+00  0.0000000E+00  0.0000000E+00
    1      -19.077493   1.000000
    2      -17.779236   1.000000
    3       -9.746876   1.000000
    4       -6.410070   1.000000
    5       -6.410102   1.000000
    6       -5.538213   1.000000
    7       -5.085460   1.000000
    8       -5.085610   1.000000
    9       -3.542687   0.951469
   10        0.038685   0.000000
   11        0.038320   0.000000
   12        0.239116   0.000000
   13        0.238788   0.000000
   14        2.550469   0.000000
   15        2.701668   0.000000
   16        3.936353   0.000000
 
  0.2500000E-01  0.0000000E+00  0.0000000E+00  0.0000000E+00
    1      -19.067827   1.000000
    2      -17.774466   1.000000
    3       -9.734932   1.000000
    4       -6.433661   1.000000
    5       -6.399509   1.000000
    6       -5.604386   1.000000
    7       -5.101851   1.000000
    8       -5.037099   1.000000
    9       -3.548678   0.989323
   10        0.029000   0.000000
   11        0.049214   0.000000
   12        0.209290   0.000000
   13        0.224205   0.000000
   14        2.568287   0.000000
   15        2.714195   0.000000
   16        4.097842   0.000000
 
  0.5000000E-01  0.0000000E+00  0.0000000E+00  0.0000000E+00
    1      -19.038936   1.000000
    2      -17.760223   1.000000
    3       -9.699471   1.000000
    4       -6.503697   1.000000
    5       -6.366967   1.000000
    6       -5.752171   1.000000
    7       -5.153306   1.000000
    8       -4.939708   1.000000
    9       -3.564237   1.021796
   10       -0.019630   0.000000
   11        0.119658   0.000000
   12        0.104980   0.000000
   13        0.188404   0.000000
   14        2.618523   0.000000
   15        2.751169   0.000000
   16        4.463168   0.000000
 
  0.7500000E-01  0.0000000E+00  0.0000000E+00  0.0000000E+00
    1      -18.991190   1.000000
    2      -17.736696   1.000000
    3       -9.641729   1.000000
    4       -6.614974   1.000000
    5       -6.313613   1.000000
    6       -5.932803   1.000000
    7       -5.234274   1.000000
    8       -4.847184   1.000000
    9       -3.592833   1.035410
   10       -0.083515   0.000000
   11       -0.011418   0.000000
   12        0.131649   0.000000
   13        0.191566   0.000000
   14        2.808494   0.000000
   15        2.699040   0.000000
   16        4.891097   0.000000
 
  0.1000000E+00  0.0000000E+00  0.0000000E+00  0.0000000E+00
    1      -18.925201   1.000000
    2      -17.704206   1.000000
    3       -9.563922   1.000000
    4       -6.760480   1.000000
    5       -6.240420   1.000000
    6       -6.128860   1.000000
    7       -5.340055   1.000000
    8       -4.780402   1.000000
    9       -3.637918   1.016807
   10       -0.163370   0.000000
   11       -0.143504   0.000000
   12        0.057064   0.000000
   13        0.301911   0.000000
   14        2.900510   0.000000
   15        2.790540   0.000000
   16        5.253445   0.000000
 
  0.1250000E+00  0.0000000E+00  0.0000000E+00  0.0000000E+00
    1      -18.841839   1.000000
    2      -17.663215   1.000000
    3       -9.469511   1.000000
    4       -6.931545   1.000000
    5       -6.333857   1.000000
    6       -6.148826   1.000000
    7       -5.464919   1.000000
    8       -4.748768   1.000000
    9       -3.703451   1.001703
   10       -0.317033   0.000000
   11       -0.182785   0.000000
   12       -0.030580   0.000000
   13        0.429774   0.000000
   14        3.010770   0.000000
   15        2.906736   0.000000
   16        5.645138   0.000000
 
  0.1500000E+00  0.0000000E+00  0.0000000E+00  0.0000000E+00
    1      -18.742254   1.000000
    2      -17.614331   1.000000
    3       -9.363665   1.000000
    4       -7.118407   1.000000
    5       -6.544879   1.000000
    6       -6.040758   1.000000
    7       -5.603084   1.000000
    8       -4.755517   1.000000
    9       -3.792306   1.000015
   10       -0.455892   0.000000
   11       -0.188396   0.000000
   12       -0.126166   0.000000
   13        0.568318   0.000000
   14        3.143736   0.000000
   15        3.041735   0.000000
   16        6.046851   0.000000
 
  0.1750000E+00  0.0000000E+00  0.0000000E+00  0.0000000E+00
    1      -18.627858   1.000000
    2      -17.558315   1.000000
    3       -9.254036   1.000000
    4       -7.310262   1.000000
    5       -6.760350   1.000000
    6       -5.918611   1.000000
    7       -5.749147   1.000000
    8       -4.798571   1.000000
    9       -3.904681   1.000000
   10       -0.567540   0.000000
   11       -0.224655   0.000000
   12       -0.153685   0.000000
   13        0.711031   0.000000
   14        3.298329   0.000000
   15        3.191229   0.000000
   16        6.287217   0.000000
 
  0.2000000E+00  0.0000000E+00  0.0000000E+00  0.0000000E+00
    1      -18.500391   1.000000
    2      -17.496097   1.000000
    3       -9.151828   1.000000
    4       -7.494720   1.000000
    5       -6.979066   1.000000
    6       -5.898342   1.000000
    7       -5.785253   1.000000
    8       -4.871452   1.000000
    9       -4.036472   1.000000
   10       -0.644601   0.000000
   11       -0.321306   0.000000
   12       -0.078506   0.000000
   13        0.852214   0.000000
   14        3.475226   0.000000
   15        3.361592   0.000000
   16        6.604704   0.000000
 
  0.2250000E+00  0.0000000E+00  0.0000000E+00  0.0000000E+00
    1      -18.361921   1.000000
    2      -17.428793   1.000000
    3       -9.072946   1.000000
    4       -7.656999   1.000000
    5       -7.199689   1.000000
    6       -6.046618   1.000000
    7       -5.644016   1.000000
    8       -4.965060   1.000000
    9       -4.178752   1.000000
   10       -0.684903   0.000000
   11       -0.411833   0.000000
   12        0.032211   0.000000
   13        0.987205   0.000000
   14        3.672399   0.000000
   15        3.554850   0.000000
   16        6.896602   0.000000
 
  0.2500000E+00  0.0000000E+00  0.0000000E+00  0.0000000E+00
    1      -18.214909   1.000000
    2      -17.357720   1.000000
    3       -9.036867   1.000000
    4       -7.781108   1.000000
    5       -7.420335   1.000000
    6       -6.190566   1.000000
    7       -5.498646   1.000000
    8       -5.069748   1.000000
    9       -4.318559   1.000000
   10       -0.690485   0.000000
   11       -0.492600   0.000000
   12        0.170484   0.000000
   13        1.112496   0.000000
   14        3.887571   0.000000
   15        3.763637   0.000000
   16        6.948744   0.000000
 
  0.2750000E+00  0.0000000E+00  0.0000000E+00  0.0000000E+00
    1      -18.062220   1.000000
    2      -17.284391   1.000000
    3       -9.058654   1.000000
    4       -7.857153   1.000000
    5       -7.638360   1.000000
    6       -6.327379   1.000000
    7       -5.353185   1.000000
    8       -5.176965   1.000000
    9       -4.440842   1.000000
   10       -0.665881   0.000000
   11       -0.560776   0.000000
   12        0.327011   0.000000
   13        1.225700   0.000000
   14        4.118259   0.000000
   15        3.982790   0.000000
   16        6.846105   0.000000
 
  0.3000000E+00  0.0000000E+00  0.0000000E+00  0.0000000E+00
    1      -17.907168   1.000000
    2      -17.210509   1.000000
    3       -9.136864   1.000000
    4       -7.892134   1.000000
    5       -7.850415   1.000000
    6       -6.454766   1.000000
    7       -5.280084   1.000000
    8       -5.211832   1.000000
    9       -4.531231   1.000000
   10       -0.616844   0.000000
   11       -0.614342   0.000000
   12        0.492269   0.000000
   13        1.325424   0.000000
   14        4.357976   0.000000
   15        4.218857   0.000000
   16        6.258865   0.000000
 
  0.3250000E+00  0.0000000E+00  0.0000000E+00  0.0000000E+00
    1      -17.753535   1.000000
    2      -17.137963   1.000000
    3       -9.253914   1.000000
    4       -8.052433   1.000000
    5       -7.907140   1.000000
    6       -6.570830   1.000000
    7       -5.374534   1.000000
    8       -5.078675   1.000000
    9       -4.579297   1.000000
   10       -0.649722   0.000000
   11       -0.551958   0.000000
   12        0.657108   0.000000
   13        1.411178   0.000000
   14        4.473339   0.000000
   15        4.609051   0.000000
   16        5.903788   0.000000
 
  0.3500000E+00  0.0000000E+00  0.0000000E+00  0.0000000E+00
    1      -17.605602   1.000000
    2      -17.068821   1.000000
    3       -9.388958   1.000000
    4       -8.239997   1.000000
    5       -7.921979   1.000000
    6       -6.674072   1.000000
    7       -5.457557   1.000000
    8       -4.957480   1.000000
    9       -4.581658   1.000000
   10       -0.672158   0.000000
   11       -0.472173   0.000000
   12        0.813136   0.000000
   13        1.483094   0.000000
   14        4.619231   0.000000
   15        4.855416   0.000000
   16        5.371662   0.000000
 
  0.3750000E+00  0.0000000E+00  0.0000000E+00  0.0000000E+00
    1      -17.468077   1.000000
    2      -17.005238   1.000000
    3       -9.525509   1.000000
    4       -8.408511   1.000000
    5       -7.945987   1.000000
    6       -6.763271   1.000000
    7       -5.527780   1.000000
    8       -4.851380   1.000000
    9       -4.543448   1.000000
   10       -0.680608   0.000000
   11       -0.385778   0.000000
   12        0.953151   0.000000
   13        1.541769   0.000000
   14        4.554581   0.000000
   15        5.090460   0.000000
   16        5.411496   0.000000
 
  0.4000000E+00  0.0000000E+00  0.0000000E+00  0.0000000E+00
    1      -17.345916   1.000000
    2      -16.949409   1.000000
    3       -9.651801   1.000000
    4       -8.553567   1.000000
    5       -7.978803   1.000000
    6       -6.837472   1.000000
    7       -5.584724   1.000000
    8       -4.762700   1.000000
    9       -4.477242   1.000000
   10       -0.678493   0.000000
   11       -0.298329   0.000000
   12        1.071563   0.000000
   13        1.588058   0.000000
   14        4.300577   0.000000
   15        5.308460   0.000000
   16        5.743048   0.000000
 
  0.4250000E+00  0.0000000E+00  0.0000000E+00  0.0000000E+00
    1      -17.244157   1.000000
    2      -16.903396   1.000000
    3       -9.759140   1.000000
    4       -8.671093   1.000000
    5       -8.014670   1.000000
    6       -6.895905   1.000000
    7       -5.628449   1.000000
    8       -4.692963   1.000000
    9       -4.399934   1.000000
   10       -0.669943   0.000000
   11       -0.216429   0.000000
   12        1.164816   0.000000
   13        1.622866   0.000000
   14        4.027233   0.000000
   15        5.562126   0.000000
   16        5.977755   0.000000
 
  0.4500000E+00  0.0000000E+00  0.0000000E+00  0.0000000E+00
    1      -17.167479   1.000000
    2      -16.869035   1.000000
    3       -9.840853   1.000000
    4       -8.757678   1.000000
    5       -8.046455   1.000000
    6       -6.938026   1.000000
    7       -5.659294   1.000000
    8       -4.642961   1.000000
    9       -4.329100   1.000000
   10       -0.659493   0.000000
   11       -0.148013   0.000000
   12        1.231303   0.000000
   13        1.647017   0.000000
   14        3.801041   0.000000
   15        5.819091   0.000000
   16        6.639303   0.000000
 
  0.4750000E+00  0.0000000E+00  0.0000000E+00  0.0000000E+00
    1      -17.119738   1.000000
    2      -16.847782   1.000000
    3       -9.891974   1.000000
    4       -8.810709   1.000000
    5       -8.068096   1.000000
    6       -6.963442   1.000000
    7       -5.677615   1.000000
    8       -4.612934   1.000000
    9       -4.279787   1.000000
   10       -0.651284   0.000000
   11       -0.101875   0.000000
   12        1.270871   0.000000
   13        1.661174   0.000000
   14        3.653160   0.000000
   15        6.093513   0.000000
   16        6.903459   0.000000
 
  0.5000000E+00  0.0000000E+00  0.0000000E+00  0.0000000E+00
    1      -17.103528   1.000000
    2      -16.840587   1.000000
    3       -9.909374   1.000000
    4       -8.828576   1.000000
    5       -8.075747   1.000000
    6       -6.971935   1.000000
    7       -5.683690   1.000000
    8       -4.602934   1.000000
    9       -4.262160   1.000000
   10       -0.648181   0.000000
   11       -0.085502   0.000000
   12        1.284003   0.000000
   13        1.665788   0.000000
   14        3.601718   0.000000
   15        6.267259   0.000000
   16        7.578766   0.000000
 
  0.5000000E+00  0.0000000E+00  0.0000000E+00  0.0000000E+00
    1      -17.103528   1.000000
    2      -16.840587   1.000000
    3       -9.909374   1.000000
    4       -8.828576   1.000000
    5       -8.075747   1.000000
    6       -6.971935   1.000000
    7       -5.683690   1.000000
    8       -4.602934   1.000000
    9       -4.262160   1.000000
   10       -0.648181   0.000000
   11       -0.085502   0.000000
   12        1.284003   0.000000
   13        1.665788   0.000000
   14        3.601718   0.000000
   15        6.267259   0.000000
   16        7.578766   0.000000
 
  0.4916667E+00  0.1666667E-01  0.0000000E+00  0.0000000E+00
    1      -17.102103   1.000000
    2      -16.839594   1.000000
    3       -9.904895   1.000000
    4       -8.831452   1.000000
    5       -8.074155   1.000000
    6       -6.973896   1.000000
    7       -5.682655   1.000000
    8       -4.642286   1.000000
    9       -4.237502   1.000000
   10       -0.647180   0.000000
   11       -0.083847   0.000000
   12        1.289784   0.000000
   13        1.651523   0.000000
   14        3.606568   0.000000
   15        6.278549   0.000000
   16        7.643280   0.000000
 
  0.4833333E+00  0.3333333E-01  0.0000000E+00  0.0000000E+00
    1      -17.097845   1.000000
    2      -16.836624   1.000000
    3       -9.891470   1.000000
    4       -8.840069   1.000000
    5       -8.069402   1.000000
    6       -6.979433   1.000000
    7       -5.679780   1.000000
    8       -4.739136   1.000000
    9       -4.184149   1.000000
   10       -0.644690   0.000000
   11       -0.078509   0.000000
   12        1.306760   0.000000
   13        1.610370   0.000000
   14        3.620983   0.000000
   15        6.300864   0.000000
   16        7.485799   0.000000
 
  0.4750000E+00  0.5000000E-01  0.0000000E+00  0.0000000E+00
    1      -17.090825   1.000000
    2      -16.831734   1.000000
    3       -9.869183   1.000000
    4       -8.854442   1.000000
    5       -8.061606   1.000000
    6       -6.987683   1.000000
    7       -5.675737   1.000000
    8       -4.868275   1.000000
    9       -4.125713   1.000000
   10       -0.642299   0.000000
   11       -0.068459   0.000000
   12        1.332085   0.000000
   13        1.548520   0.000000
   14        3.644428   0.000000
   15        6.330508   0.000000
   16        7.573348   0.000000
 
  0.4666667E+00  0.6666667E-01  0.0000000E+00  0.0000000E+00
    1      -17.081155   1.000000
    2      -16.825008   1.000000
    3       -9.838151   1.000000
    4       -8.874546   1.000000
    5       -8.050949   1.000000
    6       -6.997356   1.000000
    7       -5.671547   1.000000
    8       -5.018643   1.000000
    9       -4.070761   1.000000
   10       -0.642339   0.000000
   11       -0.052155   0.000000
   12        1.351749   0.000000
   13        1.484455   0.000000
   14        3.676076   0.000000
   15        6.364253   0.000000
   16        7.627971   0.000000
 
  0.4583333E+00  0.8333333E-01  0.0000000E+00  0.0000000E+00
    1      -17.068993   1.000000
    2      -16.816567   1.000000
    3       -9.798540   1.000000
    4       -8.900279   1.000000
    5       -8.037696   1.000000
    6       -7.006921   1.000000
    7       -5.668378   1.000000
    8       -5.185168   1.000000
    9       -4.021114   1.000000
   10       -0.647492   0.000000
   11       -0.027930   0.000000
   12        1.311843   0.000000
   13        1.476808   0.000000
   14        3.715033   0.000000
   15        6.400114   0.000000
   16        7.627186   0.000000
 
  0.4500000E+00  0.1000000E+00  0.0000000E+00  0.0000000E+00
    1      -17.054542   1.000000
    2      -16.806570   1.000000
    3       -9.750570   1.000000
    4       -8.931414   1.000000
    5       -8.022169   1.000000
    6       -7.014838   1.000000
    7       -5.667449   1.000000
    8       -5.364635   1.000000
    9       -3.976302   1.000000
   10       -0.660150   0.000000
   11        0.005511   0.000000
   12        1.217600   0.000000
   13        1.524430   0.000000
   14        3.760378   0.000000
   15        6.435696   0.000000
   16        7.560216   0.000000
 
  0.4416667E+00  0.1166667E+00  0.0000000E+00  0.0000000E+00
    1      -17.038054   1.000000
    2      -16.795198   1.000000
    3       -9.694513   1.000000
    4       -8.967546   1.000000
    5       -8.004741   1.000000
    6       -7.019686   1.000000
    7       -5.669888   1.000000
    8       -5.554409   1.000000
    9       -3.935011   1.000000
   10       -0.681918   0.000000
   11        0.048643   0.000000
   12        1.109804   0.000000
   13        1.589745   0.000000
   14        3.811180   0.000000
   15        6.475442   0.000000
   16        7.400948   0.000000
 
  0.4333333E+00  0.1333333E+00  0.0000000E+00  0.0000000E+00
    1      -17.019817   1.000000
    2      -16.782670   1.000000
    3       -9.630682   1.000000
    4       -9.008051   1.000000
    5       -7.985856   1.000000