PROCAR lm decomposed
# of k-points:   84         # of bands:  16         # of ions:   3

 k-point    1 :    0.00000000 0.00000000 0.00000000     weight = 0.00591716

band   1 # energy  -19.07750304 # occ.  2.00000000
 
ion      s     py     pz     px    dxy    dyz    dz2    dxz    dx2    tot
  1  0.132  0.000  0.000  0.000  0.000  0.000  0.000  0.000  0.000  0.132
  2  0.276  0.000  0.005  0.000  0.000  0.000  0.000  0.000  0.000  0.280
  3  0.276  0.000  0.005  0.000  0.000  0.000  0.000  0.000  0.000  0.280
tot  0.683  0.000  0.009  0.000  0.000  0.000  0.000  0.000  0.000  0.693
 
band   2 # energy  -17.77924818 # occ.  2.00000000
 
ion      s     py     pz     px    dxy    dyz    dz2    dxz    dx2    tot
  1  0.000  0.000  0.060  0.000  0.000  0.000  0.000  0.000  0.000  0.060
  2  0.314  0.000  0.000  0.000  0.000  0.000  0.000  0.000  0.000  0.315
  3  0.314  0.000  0.000  0.000  0.000  0.000  0.000  0.000  0.000  0.315
tot  0.629  0.000  0.060  0.000  0.000  0.000  0.000  0.000  0.000  0.689
 
band   3 # energy   -9.74695311 # occ.  2.00000000
 
ion      s     py     pz     px    dxy    dyz    dz2    dxz    dx2    tot
  1  0.136  0.000  0.000  0.000  0.000  0.000  0.198  0.000  0.000  0.334
  2  0.018  0.000  0.127  0.000  0.000  0.000  0.000  0.000  0.000  0.145
  3  0.018  0.000  0.127  0.000  0.000  0.000  0.000  0.000  0.000  0.145
tot  0.172  0.000  0.253  0.000  0.000  0.000  0.198  0.000  0.000  0.623
 
band   4 # energy   -6.41019167 # occ.  2.00000000
 
ion      s     py     pz     px    dxy    dyz    dz2    dxz    dx2    tot
  1  0.000  0.003  0.000  0.004  0.339  0.000  0.000  0.000  0.247  0.594
  2  0.000  0.049  0.000  0.068  0.000  0.000  0.000  0.000  0.000  0.117
  3  0.000  0.049  0.000  0.068  0.000  0.000  0.000  0.000  0.000  0.117
tot  0.000  0.102  0.000  0.139  0.339  0.000  0.000  0.000  0.247  0.827
 
band   5 # energy   -6.41018458 # occ.  2.00000000
 
ion      s     py     pz     px    dxy    dyz    dz2    dxz    dx2    tot
  1  0.000  0.004  0.000  0.003  0.247  0.000  0.000  0.000  0.339  0.594
  2  0.000  0.068  0.000  0.049  0.000  0.000  0.000  0.000  0.000  0.117
  3  0.000  0.068  0.000  0.049  0.000  0.000  0.000  0.000  0.000  0.117
tot  0.000  0.139  0.000  0.102  0.247  0.000  0.000  0.000  0.339  0.827
 
band   6 # energy   -5.53879853 # occ.  2.00000000
 
ion      s     py     pz     px    dxy    dyz    dz2    dxz    dx2    tot
  1  0.000  0.000  0.060  0.000  0.000  0.000  0.000  0.000  0.000  0.060
  2  0.000  0.000  0.247  0.000  0.000  0.000  0.000  0.000  0.000  0.247
  3  0.000  0.000  0.247  0.000  0.000  0.000  0.000  0.000  0.000  0.247
tot  0.000  0.000  0.554  0.000  0.000  0.000  0.000  0.000  0.000  0.555
 
band   7 # energy   -5.08552911 # occ.  2.00000000
 
ion      s     py     pz     px    dxy    dyz    dz2    dxz    dx2    tot
  1  0.000  0.000  0.000  0.000  0.000  0.392  0.000  0.132  0.000  0.524
  2  0.000  0.118  0.000  0.040  0.000  0.000  0.000  0.000  0.000  0.158
  3  0.000  0.118  0.000  0.040  0.000  0.000  0.000  0.000  0.000  0.158
tot  0.000  0.236  0.000  0.080  0.000  0.392  0.000  0.132  0.000  0.840
 
band   8 # energy   -5.08547492 # occ.  2.00000000
 
ion      s     py     pz     px    dxy    dyz    dz2    dxz    dx2    tot
  1  0.000  0.000  0.000  0.000  0.000  0.132  0.000  0.392  0.000  0.524
  2  0.000  0.040  0.000  0.118  0.000  0.000  0.000  0.000  0.000  0.158
  3  0.000  0.040  0.000  0.118  0.000  0.000  0.000  0.000  0.000  0.158
tot  0.000  0.080  0.000  0.236  0.000  0.132  0.000  0.392  0.000  0.840
 
band   9 # energy   -3.54382341 # occ.  2.02724198
 
ion      s     py     pz     px    dxy    dyz    dz2    dxz    dx2    tot
  1  0.014  0.000  0.000  0.000  0.000  0.000  0.609  0.000  0.000  0.623
  2  0.002  0.000  0.069  0.000  0.000  0.000  0.000  0.000  0.000  0.071
  3  0.002  0.000  0.069  0.000  0.000  0.000  0.000  0.000  0.000  0.071
tot  0.019  0.000  0.137  0.000  0.000  0.000  0.609  0.000  0.000  0.766
 
band  10 # energy    0.03867714 # occ.  0.00000000
 
ion      s     py     pz     px    dxy    dyz    dz2    dxz    dx2    tot
  1  0.000  0.000  0.000  0.000  0.000  0.100  0.000  0.276  0.000  0.376
  2  0.000  0.047  0.000  0.130  0.000  0.000  0.000  0.000  0.000  0.177
  3  0.000  0.047  0.000  0.130  0.000  0.000  0.000  0.000  0.000  0.177
tot  0.000  0.094  0.000  0.260  0.000  0.100  0.000  0.276  0.000  0.730
 
band  11 # energy    0.03872661 # occ.  0.00000000
 
ion      s     py     pz     px    dxy    dyz    dz2    dxz    dx2    tot
  1  0.000  0.000  0.000  0.000  0.000  0.276  0.000  0.100  0.000  0.376
  2  0.000  0.130  0.000  0.047  0.000  0.000  0.000  0.000  0.000  0.177
  3  0.000  0.130  0.000  0.047  0.000  0.000  0.000  0.000  0.000  0.177
tot  0.000  0.260  0.000  0.094  0.000  0.276  0.000  0.100  0.000  0.730
 
band  12 # energy    0.23844105 # occ.  0.00000000
 
ion      s     py     pz     px    dxy    dyz    dz2    dxz    dx2    tot
  1  0.000  0.015  0.000  0.005  0.072  0.000  0.000  0.000  0.239  0.330
  2  0.000  0.172  0.000  0.052  0.000  0.000  0.000  0.000  0.000  0.223
  3  0.000  0.172  0.000  0.052  0.000  0.000  0.000  0.000  0.000  0.224
tot  0.000  0.359  0.000  0.108  0.072  0.000  0.000  0.000  0.239  0.777
 
band  13 # energy    0.23846600 # occ.  0.00000000
 
ion      s     py     pz     px    dxy    dyz    dz2    dxz    dx2    tot
  1  0.000  0.005  0.000  0.015  0.239  0.000  0.000  0.000  0.072  0.330
  2  0.000  0.052  0.000  0.172  0.000  0.000  0.000  0.000  0.000  0.223
  3  0.000  0.052  0.000  0.172  0.000  0.000  0.000  0.000  0.000  0.224
tot  0.000  0.108  0.000  0.359  0.239  0.000  0.000  0.000  0.072  0.777
 
band  14 # energy    2.54149826 # occ.  0.00000000
 
ion      s     py     pz     px    dxy    dyz    dz2    dxz    dx2    tot
  1  0.022  0.000  0.000  0.000  0.000  0.000  0.017  0.000  0.000  0.039
  2  0.017  0.000  0.003  0.000  0.000  0.000  0.000  0.000  0.000  0.019
  3  0.016  0.000  0.003  0.000  0.000  0.000  0.000  0.000  0.000  0.019
tot  0.055  0.000  0.005  0.000  0.000  0.000  0.017  0.000  0.000  0.077
 
band  15 # energy    2.70173467 # occ.  0.00000000
 
ion      s     py     pz     px    dxy    dyz    dz2    dxz    dx2    tot
  1  0.000  0.000  0.002  0.000  0.000  0.000  0.000  0.000  0.000  0.002
  2  0.002  0.000  0.013  0.000  0.000  0.000  0.000  0.000  0.000  0.015
  3  0.002  0.000  0.013  0.000  0.000  0.000  0.000  0.000  0.000  0.015
tot  0.004  0.000  0.028  0.000  0.000  0.000  0.000  0.000  0.000  0.032
 
band  16 # energy    3.20352035 # occ.  0.00000000
 
ion      s     py     pz     px    dxy    dyz    dz2    dxz    dx2    tot
  1  0.015  0.000  0.000  0.000  0.000  0.000  0.006  0.000  0.000  0.021
  2  0.011  0.000  0.000  0.000  0.000  0.000  0.000  0.000  0.000  0.011
  3  0.011  0.000  0.000  0.000  0.000  0.000  0.000  0.000  0.000  0.011
tot  0.037  0.000  0.000  0.000  0.000  0.000  0.006  0.000  0.000  0.043
 

 k-point    2 :    0.07692308 0.00000000 0.00000000     weight = 0.03550296

band   1 # energy  -18.98675967 # occ.  2.00000000
 
ion      s     py     pz     px    dxy    dyz    dz2    dxz    dx2    tot
  1  0.127  0.001  0.000  0.002  0.001  0.000  0.000  0.000  0.000  0.131
  2  0.277  0.000  0.005  0.000  0.000  0.000  0.000  0.000  0.000  0.282
  3  0.277  0.000  0.005  0.000  0.000  0.000  0.000  0.000  0.000  0.282
tot  0.681  0.001  0.009  0.002  0.001  0.000  0.000  0.000  0.000  0.695
 
band   2 # energy  -17.73451899 # occ.  2.00000000
 
ion      s     py     pz     px    dxy    dyz    dz2    dxz    dx2    tot
  1  0.000  0.000  0.058  0.000  0.000  0.001  0.000  0.003  0.000  0.062
  2  0.315  0.000  0.000  0.000  0.000  0.000  0.000  0.000  0.000  0.315
  3  0.315  0.000  0.000  0.000  0.000  0.000  0.000  0.000  0.000  0.315
tot  0.629  0.000  0.058  0.000  0.000  0.001  0.000  0.003  0.000  0.693
 
band   3 # energy   -9.63647617 # occ.  2.00000000
 
ion      s     py     pz     px    dxy    dyz    dz2    dxz    dx2    tot
  1  0.128  0.001  0.000  0.004  0.004  0.000  0.193  0.000  0.001  0.331
  2  0.017  0.000  0.129  0.000  0.000  0.000  0.000  0.000  0.000  0.146
  3  0.017  0.000  0.129  0.000  0.000  0.000  0.000  0.000  0.000  0.146
tot  0.162  0.001  0.258  0.004  0.004  0.000  0.193  0.000  0.001  0.624
 
band   4 # energy   -6.62518211 # occ.  2.00000000
 
ion      s     py     pz     px    dxy    dyz    dz2    dxz    dx2    tot
  1  0.012  0.002  0.000  0.006  0.409  0.000  0.000  0.000  0.136  0.567
  2  0.003  0.029  0.000  0.088  0.000  0.000  0.000  0.000  0.000  0.121
  3  0.003  0.029  0.000  0.088  0.000  0.000  0.000  0.000  0.000  0.121
tot  0.019  0.061  0.000  0.182  0.409  0.000  0.000  0.000  0.136  0.808
 
band   5 # energy   -6.30865760 # occ.  2.00000000
 
ion      s     py     pz     px    dxy    dyz    dz2    dxz    dx2    tot
  1  0.000  0.008  0.000  0.003  0.143  0.000  0.000  0.000  0.428  0.581
  2  0.000  0.091  0.000  0.030  0.000  0.000  0.000  0.000  0.000  0.121
  3  0.000  0.091  0.000  0.030  0.000  0.000  0.000  0.000  0.000  0.121
tot  0.000  0.190  0.000  0.063  0.143  0.000  0.000  0.000  0.428  0.824
 
band   6 # energy   -5.94749174 # occ.  2.00000000
 
ion      s     py     pz     px    dxy    dyz    dz2    dxz    dx2    tot
  1  0.000  0.000  0.020  0.000  0.000  0.061  0.000  0.183  0.000  0.263
  2  0.000  0.013  0.151  0.038  0.000  0.000  0.000  0.000  0.000  0.202
  3  0.000  0.013  0.151  0.038  0.000  0.000  0.000  0.000  0.000  0.202
tot  0.000  0.025  0.321  0.076  0.000  0.061  0.000  0.183  0.000  0.667
 
band   7 # energy   -5.24180658 # occ.  2.00000000
 
ion      s     py     pz     px    dxy    dyz    dz2    dxz    dx2    tot
  1  0.000  0.000  0.000  0.000  0.000  0.387  0.000  0.129  0.000  0.516
  2  0.000  0.119  0.000  0.040  0.000  0.000  0.000  0.000  0.000  0.159
  3  0.000  0.119  0.000  0.040  0.000  0.000  0.000  0.000  0.000  0.159
tot  0.000  0.238  0.000  0.079  0.000  0.387  0.000  0.129  0.000  0.834
 
band   8 # energy   -4.84105573 # occ.  2.00000000
 
ion      s     py     pz     px    dxy    dyz    dz2    dxz    dx2    tot
  1  0.000  0.000  0.046  0.000  0.000  0.059  0.000  0.176  0.000  0.280
  2  0.000  0.030  0.096  0.090  0.000  0.000  0.000  0.000  0.000  0.216
  3  0.000  0.030  0.095  0.090  0.000  0.000  0.000  0.000  0.000  0.216
tot  0.000  0.060  0.237  0.180  0.000  0.059  0.000  0.176  0.000  0.712
 
band   9 # energy   -3.59570095 # occ.  2.06107282
 
ion      s     py     pz     px    dxy    dyz    dz2    dxz    dx2    tot
  1  0.015  0.000  0.000  0.001  0.010  0.000  0.598  0.000  0.003  0.627
  2  0.003  0.001  0.066  0.004  0.000  0.000  0.000  0.000  0.000  0.074
  3  0.003  0.001  0.066  0.004  0.000  0.000  0.000  0.000  0.000  0.074
tot  0.022  0.003  0.131  0.008  0.010  0.000  0.598  0.000  0.003  0.775
 
band  10 # energy   -0.09129496 # occ.  0.00000000
 
ion      s     py     pz     px    dxy    dyz    dz2    dxz    dx2    tot
  1  0.000  0.000  0.001  0.000  0.000  0.104  0.000  0.311  0.000  0.415
  2  0.009  0.036  0.002  0.109  0.000  0.000  0.000  0.000  0.000  0.156
  3  0.009  0.036  0.002  0.108  0.000  0.000  0.000  0.000  0.000  0.154
tot  0.018  0.072  0.004  0.217  0.000  0.104  0.000  0.311  0.000  0.725
 
band  11 # energy   -0.02385896 # occ.  0.00000000
 
ion      s     py     pz     px    dxy    dyz    dz2    dxz    dx2    tot
  1  0.002  0.004  0.000  0.012  0.238  0.000  0.015  0.000  0.079  0.351
  2  0.005  0.048  0.002  0.142  0.000  0.000  0.000  0.000  0.000  0.197
  3  0.005  0.048  0.002  0.143  0.000  0.000  0.000  0.000  0.000  0.199
tot  0.013  0.099  0.004  0.298  0.238  0.000  0.015  0.000  0.079  0.747
 
band  12 # energy    0.12733236 # occ.  0.00000000
 
ion      s     py     pz     px    dxy    dyz    dz2    dxz    dx2    tot
  1  0.000  0.015  0.000  0.005  0.082  0.000  0.000  0.000  0.245  0.346
  2  0.000  0.161  0.000  0.054  0.000  0.000  0.000  0.000  0.000  0.214
  3  0.000  0.160  0.000  0.053  0.000  0.000  0.000  0.000  0.000  0.213
tot  0.000  0.335  0.000  0.112  0.082  0.000  0.000  0.000  0.245  0.774
 
band  13 # energy    0.20231564 # occ.  0.00000000
 
ion      s     py     pz     px    dxy    dyz    dz2    dxz    dx2    tot
  1  0.000  0.000  0.000  0.000  0.000  0.292  0.000  0.097  0.000  0.390
  2  0.000  0.131  0.000  0.044  0.000  0.000  0.000  0.000  0.000  0.175
  3  0.000  0.132  0.000  0.044  0.000  0.000  0.000  0.000  0.000  0.177
tot  0.000  0.264  0.000  0.088  0.000  0.292  0.000  0.097  0.000  0.742
 
band  14 # energy    2.69055679 # occ.  0.00000000
 
ion      s     py     pz     px    dxy    dyz    dz2    dxz    dx2    tot
  1  0.015  0.000  0.000  0.001  0.002  0.000  0.018  0.000  0.001  0.036
  2  0.011  0.001  0.004  0.003  0.000  0.000  0.000  0.000  0.000  0.019
  3  0.011  0.001  0.004  0.003  0.000  0.000  0.000  0.000  0.000  0.019
tot  0.036  0.002  0.007  0.007  0.002  0.000  0.018  0.000  0.001  0.073
 
band  15 # energy    2.82022631 # occ.  0.00000000
 
ion      s     py     pz     px    dxy    dyz    dz2    dxz    dx2    tot
  1  0.000  0.000  0.001  0.000  0.000  0.000  0.000  0.001  0.000  0.003
  2  0.002  0.000  0.013  0.000  0.000  0.000  0.000  0.000  0.000  0.015
  3  0.002  0.000  0.013  0.000  0.000  0.000  0.000  0.000  0.000  0.015
tot  0.003  0.000  0.028  0.001  0.000  0.000  0.000  0.001  0.000  0.033
 
band  16 # energy    3.34039138 # occ.  0.00000000
 
ion      s     py     pz     px    dxy    dyz    dz2    dxz    dx2    tot
  1  0.010  0.000  0.000  0.000  0.000  0.000  0.007  0.000  0.000  0.019
  2  0.007  0.000  0.001  0.001  0.000  0.000  0.000  0.000  0.000  0.010
  3  0.008  0.001  0.001  0.002  0.000  0.000  0.000  0.000  0.000  0.010
tot  0.025  0.001  0.001  0.003  0.000  0.000  0.007  0.000  0.000  0.039
 

 k-point    3 :    0.15384615 0.00000000 0.00000000     weight = 0.03550296

band   1 # energy  -18.72558613 # occ.  2.00000000
 
ion      s     py     pz     px    dxy    dyz    dz2    dxz    dx2    tot
  1  0.114  0.002  0.000  0.007  0.003  0.000  0.001  0.000  0.001  0.128
  2  0.281  0.000  0.005  0.001  0.000  0.000  0.000  0.000  0.000  0.287
  3  0.281  0.000  0.005  0.001  0.000  0.000  0.000  0.000  0.000  0.287
tot  0.676  0.003  0.009  0.009  0.003  0.000  0.001  0.000  0.001  0.702
 
band   2 # energy  -17.60616460 # occ.  2.00000000
 
ion      s     py     pz     px    dxy    dyz    dz2    dxz    dx2    tot
  1  0.000  0.000  0.051  0.000  0.000  0.005  0.000  0.014  0.000  0.069
  2  0.316  0.000  0.001  0.001  0.000  0.000  0.000  0.000  0.000  0.317
  3  0.316  0.000  0.001  0.001  0.000  0.000  0.000  0.000  0.000  0.317
tot  0.632  0.000  0.052  0.001  0.000  0.005  0.000  0.014  0.000  0.704
 
band   3 # energy   -9.34685712 # occ.  2.00000000
 
ion      s     py     pz     px    dxy    dyz    dz2    dxz    dx2    tot
  1  0.101  0.004  0.000  0.013  0.024  0.000  0.176  0.000  0.008  0.327
  2  0.014  0.001  0.133  0.003  0.000  0.000  0.000  0.000  0.000  0.151
  3  0.014  0.001  0.133  0.003  0.000  0.000  0.000  0.000  0.000  0.151
tot  0.129  0.006  0.267  0.019  0.024  0.000  0.176  0.000  0.008  0.629
 
band   4 # energy   -7.14794429 # occ.  2.00000000
 
ion      s     py     pz     px    dxy    dyz    dz2    dxz    dx2    tot
  1  0.049  0.003  0.000  0.010  0.322  0.000  0.003  0.000  0.107  0.493
  2  0.011  0.030  0.002  0.090  0.000  0.000  0.000  0.000  0.000  0.133
  3  0.011  0.030  0.002  0.090  0.000  0.000  0.000  0.000  0.000  0.133
tot  0.071  0.063  0.004  0.190  0.322  0.000  0.003  0.000  0.107  0.759
 
band   5 # energy   -6.57779214 # occ.  2.00000000
 
ion      s     py     pz     px    dxy    dyz    dz2    dxz    dx2    tot
  1  0.000  0.000  0.002  0.000  0.000  0.083  0.000  0.248  0.000  0.332
  2  0.001  0.021  0.102  0.062  0.000  0.000  0.000  0.000  0.000  0.185
  3  0.001  0.021  0.102  0.062  0.000  0.000  0.000  0.000  0.000  0.185
tot  0.001  0.041  0.205  0.123  0.000  0.083  0.000  0.248  0.000  0.702
 
band   6 # energy   -6.02281236 # occ.  2.00000000
 
ion      s     py     pz     px    dxy    dyz    dz2    dxz    dx2    tot
  1  0.000  0.015  0.000  0.005  0.130  0.000  0.000  0.000  0.391  0.541
  2  0.000  0.102  0.000  0.034  0.000  0.000  0.000  0.000  0.000  0.135
  3  0.000  0.102  0.000  0.034  0.000  0.000  0.000  0.000  0.000  0.136
tot  0.000  0.218  0.000  0.073  0.130  0.000  0.000  0.000  0.391  0.812
 
band   7 # energy   -5.62525253 # occ.  2.00000000
 
ion      s     py     pz     px    dxy    dyz    dz2    dxz    dx2    tot
  1  0.000  0.000  0.000  0.000  0.000  0.375  0.000  0.125  0.000  0.500
  2  0.000  0.121  0.000  0.040  0.000  0.000  0.000  0.000  0.000  0.161
  3  0.000  0.121  0.000  0.040  0.000  0.000  0.000  0.000  0.000  0.161
tot  0.000  0.241  0.000  0.080  0.000  0.375  0.000  0.125  0.000  0.822
 
band   8 # energy   -4.75994792 # occ.  2.00000000
 
ion      s     py     pz     px    dxy    dyz    dz2    dxz    dx2    tot
  1  0.000  0.000  0.074  0.000  0.000  0.013  0.000  0.038  0.000  0.125
  2  0.003  0.029  0.139  0.086  0.000  0.000  0.000  0.000  0.000  0.257
  3  0.003  0.029  0.139  0.086  0.000  0.000  0.000  0.000  0.000  0.257
tot  0.006  0.058  0.352  0.173  0.000  0.013  0.000  0.038  0.000  0.638
 
band   9 # energy   -3.80816371 # occ.  2.00000590
 
ion      s     py     pz     px    dxy    dyz    dz2    dxz    dx2    tot
  1  0.016  0.001  0.000  0.002  0.053  0.000  0.546  0.000  0.018  0.636
  2  0.006  0.004  0.055  0.013  0.000  0.000  0.000  0.000  0.000  0.078
  3  0.006  0.004  0.055  0.013  0.000  0.000  0.000  0.000  0.000  0.078
tot  0.028  0.009  0.111  0.028  0.053  0.000  0.546  0.000  0.018  0.792
 
band  10 # energy   -0.47560735 # occ.  0.00000000
 
ion      s     py     pz     px    dxy    dyz    dz2    dxz    dx2    tot
  1  0.002  0.003  0.000  0.009  0.234  0.000  0.082  0.000  0.078  0.408
  2  0.009  0.033  0.008  0.099  0.000  0.000  0.000  0.000  0.000  0.149
  3  0.009  0.033  0.008  0.099  0.000  0.000  0.000  0.000  0.000  0.149
tot  0.020  0.069  0.016  0.207  0.234  0.000  0.082  0.000  0.078  0.707
 
band  11 # energy   -0.18691714 # occ.  0.00000000
 
ion      s     py     pz     px    dxy    dyz    dz2    dxz    dx2    tot
  1  0.000  0.000  0.003  0.000  0.000  0.122  0.000  0.367  0.000  0.493
  2  0.022  0.021  0.010  0.062  0.000  0.000  0.000  0.000  0.000  0.115
  3  0.022  0.021  0.010  0.062  0.000  0.000  0.000  0.000  0.000  0.115
tot  0.044  0.041  0.023  0.124  0.000  0.122  0.000  0.367  0.000  0.723
 
band  12 # energy   -0.14090649 # occ.  0.00000000
 
ion      s     py     pz     px    dxy    dyz    dz2    dxz    dx2    tot
  1  0.000  0.014  0.000  0.005  0.094  0.000  0.000  0.000  0.283  0.397
  2  0.000  0.141  0.000  0.047  0.000  0.000  0.000  0.000  0.000  0.188
  3  0.000  0.141  0.000  0.047  0.000  0.000  0.000  0.000  0.000  0.188
tot  0.000  0.296  0.000  0.099  0.094  0.000  0.000  0.000  0.283  0.773
 
band  13 # energy    0.59138380 # occ.  0.00000000
 
ion      s     py     pz     px    dxy    dyz    dz2    dxz    dx2    tot
  1  0.000  0.000  0.000  0.000  0.000  0.315  0.000  0.105  0.000  0.420
  2  0.000  0.129  0.000  0.043  0.000  0.000  0.000  0.000  0.000  0.172
  3  0.000  0.129  0.000  0.043  0.000  0.000  0.000  0.000  0.000  0.172
tot  0.000  0.259  0.000  0.086  0.000  0.315  0.000  0.105  0.000  0.765
 
band  14 # energy    3.05580789 # occ.  0.00000000
 
ion      s     py     pz     px    dxy    dyz    dz2    dxz    dx2    tot
  1  0.009  0.001  0.000  0.002  0.003  0.000  0.019  0.000  0.001  0.034
  2  0.007  0.001  0.004  0.004  0.000  0.000  0.000  0.000  0.000  0.017
  3  0.007  0.001  0.004  0.004  0.000  0.000  0.000  0.000  0.000  0.017
tot  0.022  0.004  0.009  0.011  0.003  0.000  0.019  0.000  0.001  0.068
 
band  15 # energy    3.16642411 # occ.  0.00000000
 
ion      s     py     pz     px    dxy    dyz    dz2    dxz    dx2    tot
  1  0.000  0.000  0.001  0.000  0.000  0.001  0.000  0.003  0.000  0.005
  2  0.001  0.000  0.015  0.001  0.000  0.000  0.000  0.000  0.000  0.016
  3  0.001  0.000  0.015  0.001  0.000  0.000  0.000  0.000  0.000  0.016
tot  0.002  0.000  0.030  0.001  0.000  0.001  0.000  0.003  0.000  0.037
 
band  16 # energy    3.70072417 # occ.  0.00000000
 
ion      s     py     pz     px    dxy    dyz    dz2    dxz    dx2    tot
  1  0.006  0.000  0.000  0.001  0.001  0.000  0.008  0.000  0.000  0.017
  2  0.004  0.001  0.001  0.002  0.000  0.000  0.000  0.000  0.000  0.008
  3  0.004  0.001  0.001  0.002  0.000  0.000  0.000  0.000  0.000  0.008
tot  0.015  0.002  0.002  0.005  0.001  0.000  0.008  0.000  0.000  0.033
 

 k-point    4 :    0.23076923 0.00000000 0.00000000     weight = 0.03550296

band   1 # energy  -18.32865950 # occ.  2.00000000
 
ion      s     py     pz     px    dxy    dyz    dz2    dxz    dx2    tot
  1  0.093  0.005  0.000  0.015  0.008  0.000  0.001  0.000  0.003  0.124
  2  0.288  0.001  0.005  0.002  0.000  0.000  0.000  0.000  0.000  0.295
  3  0.288  0.001  0.005  0.002  0.000  0.000  0.000  0.000  0.000  0.295
tot  0.669  0.006  0.009  0.018  0.008  0.000  0.001  0.000  0.003  0.714
 
band   2 # energy  -17.41268115 # occ.  2.00000000
 
ion      s     py     pz     px    dxy    dyz    dz2    dxz    dx2    tot
  1  0.000  0.000  0.041  0.000  0.000  0.010  0.000  0.030  0.000  0.081
  2  0.319  0.000  0.001  0.001  0.000  0.000  0.000  0.000  0.000  0.321
  3  0.318  0.000  0.001  0.001  0.000  0.000  0.000  0.000  0.000  0.321
tot  0.637  0.001  0.043  0.002  0.000  0.010  0.000  0.030  0.000  0.722
 
band   3 # energy   -9.06012825 # occ.  2.00000000
 
ion      s     py     pz     px    dxy    dyz    dz2    dxz    dx2    tot
  1  0.045  0.007  0.000  0.020  0.106  0.000  0.134  0.000  0.035  0.347
  2  0.008  0.006  0.122  0.017  0.000  0.000  0.000  0.000  0.000  0.152
  3  0.008  0.006  0.122  0.017  0.000  0.000  0.000  0.000  0.000  0.152
tot  0.061  0.018  0.244  0.054  0.106  0.000  0.134  0.000  0.035  0.652
 
band   4 # energy   -7.68960479 # occ.  2.00000000
 
ion      s     py     pz     px    dxy    dyz    dz2    dxz    dx2    tot
  1  0.108  0.007  0.000  0.022  0.156  0.000  0.023  0.000  0.052  0.368
  2  0.023  0.028  0.024  0.085  0.000  0.000  0.000  0.000  0.000  0.159
  3  0.023  0.028  0.024  0.085  0.000  0.000  0.000  0.000  0.000  0.159
tot  0.153  0.064  0.047  0.192  0.156  0.000  0.023  0.000  0.052  0.687
 
band   5 # energy   -7.25069784 # occ.  2.00000000
 
ion      s     py     pz     px    dxy    dyz    dz2    dxz    dx2    tot
  1  0.000  0.000  0.005  0.000  0.000  0.080  0.000  0.241  0.000  0.327
  2  0.003  0.029  0.066  0.086  0.000  0.000  0.000  0.000  0.000  0.183
  3  0.003  0.029  0.066  0.086  0.000  0.000  0.000  0.000  0.000  0.183
tot  0.006  0.057  0.137  0.172  0.000  0.080  0.000  0.241  0.000  0.693
 
band   6 # energy   -6.08037941 # occ.  2.00000000
 
ion      s     py     pz     px    dxy    dyz    dz2    dxz    dx2    tot
  1  0.000  0.000  0.000  0.000  0.000  0.365  0.000  0.122  0.000  0.486
  2  0.000  0.122  0.000  0.041  0.000  0.000  0.000  0.000  0.000  0.163
  3  0.000  0.122  0.000  0.041  0.000  0.000  0.000  0.000  0.000  0.163
tot  0.000  0.244  0.000  0.081  0.000  0.365  0.000  0.122  0.000  0.812
 
band   7 # energy   -5.61069280 # occ.  2.00000000
 
ion      s     py     pz     px    dxy    dyz    dz2    dxz    dx2    tot
  1  0.000  0.025  0.000  0.008  0.109  0.000  0.000  0.000  0.326  0.468
  2  0.000  0.121  0.000  0.040  0.000  0.000  0.000  0.000  0.000  0.161
  3  0.000  0.121  0.000  0.040  0.000  0.000  0.000  0.000  0.000  0.161
tot  0.000  0.267  0.000  0.089  0.109  0.000  0.000  0.000  0.326  0.791
 
band   8 # energy   -4.98856996 # occ.  2.00000000
 
ion      s     py     pz     px    dxy    dyz    dz2    dxz    dx2    tot
  1  0.000  0.000  0.076  0.000  0.000  0.000  0.000  0.001  0.000  0.077
  2  0.007  0.024  0.164  0.072  0.000  0.000  0.000  0.000  0.000  0.268
  3  0.007  0.024  0.164  0.072  0.000  0.000  0.000  0.000  0.000  0.268
tot  0.015  0.048  0.403  0.145  0.000  0.000  0.000  0.001  0.000  0.613
 
band   9 # energy   -4.21179510 # occ.  2.00000000
 
ion      s     py     pz     px    dxy    dyz    dz2    dxz    dx2    tot
  1  0.015  0.002  0.000  0.005  0.133  0.000  0.450  0.000  0.044  0.649
  2  0.007  0.006  0.041  0.018  0.000  0.000  0.000  0.000  0.000  0.073
  3  0.007  0.006  0.041  0.019  0.000  0.000  0.000  0.000  0.000  0.073
tot  0.030  0.014  0.081  0.042  0.133  0.000  0.450  0.000  0.044  0.795
 
band  10 # energy   -0.68964512 # occ.  0.00000000
 
ion      s     py     pz     px    dxy    dyz    dz2    dxz    dx2    tot
  1  0.004  0.002  0.000  0.005  0.207  0.000  0.209  0.000  0.069  0.496
  2  0.007  0.021  0.017  0.062  0.000  0.000  0.000  0.000  0.000  0.105
  3  0.007  0.021  0.017  0.062  0.000  0.000  0.000  0.000  0.000  0.105
tot  0.017  0.043  0.033  0.128  0.207  0.000  0.209  0.000  0.069  0.707
 
band  11 # energy   -0.43106515 # occ.  0.00000000
 
ion      s     py     pz     px    dxy    dyz    dz2    dxz    dx2    tot
  1  0.000  0.013  0.000  0.004  0.118  0.000  0.000  0.000  0.353  0.488
  2  0.000  0.112  0.000  0.037  0.000  0.000  0.000  0.000  0.000  0.150
  3  0.000  0.112  0.000  0.037  0.000  0.000  0.000  0.000  0.000  0.150
tot  0.000  0.237  0.000  0.079  0.118  0.000  0.000  0.000  0.353  0.788
 
band  12 # energy    0.06118775 # occ.  0.00000000
 
ion      s     py     pz     px    dxy    dyz    dz2    dxz    dx2    tot
  1  0.000  0.000  0.011  0.000  0.000  0.130  0.000  0.389  0.000  0.529
  2  0.028  0.010  0.027  0.030  0.000  0.000  0.000  0.000  0.000  0.095
  3  0.028  0.010  0.027  0.030  0.000  0.000  0.000  0.000  0.000  0.095
tot  0.056  0.020  0.065  0.060  0.000  0.130  0.000  0.389  0.000  0.720
 
band  13 # energy    1.01788401 # occ.  0.00000000
 
ion      s     py     pz     px    dxy    dyz    dz2    dxz    dx2    tot
  1  0.000  0.000  0.000  0.000  0.000  0.338  0.000  0.113  0.000  0.451
  2  0.000  0.125  0.000  0.042  0.000  0.000  0.000  0.000  0.000  0.167
  3  0.000  0.125  0.000  0.042  0.000  0.000  0.000  0.000  0.000  0.167
tot  0.000  0.251  0.000  0.084  0.000  0.338  0.000  0.113  0.000  0.785
 
band  14 # energy    3.58885362 # occ.  0.00000000
 
ion      s     py     pz     px    dxy    dyz    dz2    dxz    dx2    tot
  1  0.008  0.001  0.000  0.004  0.005  0.000  0.018  0.000  0.002  0.038
  2  0.007  0.001  0.004  0.004  0.000  0.000  0.000  0.000  0.000  0.016
  3  0.007  0.001  0.004  0.004  0.000  0.000  0.000  0.000  0.000  0.016
tot  0.022  0.004  0.008  0.012  0.005  0.000  0.018  0.000  0.002  0.070
 
band  15 # energy    3.72061862 # occ.  0.00000000
 
ion      s     py     pz     px    dxy    dyz    dz2    dxz    dx2    tot
  1  0.000  0.000  0.001  0.000  0.000  0.001  0.000  0.004  0.000  0.006
  2  0.000  0.000  0.016  0.001  0.000  0.000  0.000  0.000  0.000  0.018
  3  0.000  0.000  0.016  0.001  0.000  0.000  0.000  0.000  0.000  0.018
tot  0.001  0.000  0.033  0.001  0.000  0.001  0.000  0.004  0.000  0.042
 
band  16 # energy    4.25903687 # occ.  0.00000000
 
ion      s     py     pz     px    dxy    dyz    dz2    dxz    dx2    tot
  1  0.005  0.001  0.000  0.002  0.001  0.000  0.006  0.000  0.000  0.016
  2  0.004  0.001  0.001  0.002  0.000  0.000  0.000  0.000  0.000  0.007
  3  0.004  0.001  0.001  0.002  0.000  0.000  0.000  0.000  0.000  0.007
tot  0.012  0.002  0.002  0.005  0.001  0.000  0.006  0.000  0.000  0.029
 

 k-point    5 :    0.30769231 0.00000000 0.00000000     weight = 0.03550296

band   1 # energy  -17.85956047 # occ.  2.00000000
 
ion      s     py     pz     px    dxy    dyz    dz2    dxz    dx2    tot
  1  0.067  0.008  0.000  0.023  0.016  0.000  0.001  0.000  0.005  0.121
  2  0.298  0.001  0.005  0.002  0.000  0.000  0.000  0.000  0.000  0.305
  3  0.298  0.001  0.005  0.002  0.000  0.000  0.000  0.000  0.000  0.305
tot  0.663  0.009  0.010  0.027  0.016  0.000  0.001  0.000  0.005  0.731
 
band   2 # energy  -17.18795642 # occ.  2.00000000
 
ion      s     py     pz     px    dxy    dyz    dz2    dxz    dx2    tot
  1  0.000  0.000  0.028  0.000  0.000  0.017  0.000  0.050  0.000  0.095
  2  0.322  0.000  0.001  0.001  0.000  0.000  0.000  0.000  0.000  0.325
  3  0.322  0.000  0.001  0.001  0.000  0.000  0.000  0.000  0.000  0.325
tot  0.644  0.001  0.031  0.002  0.000  0.017  0.000  0.050  0.000  0.745
 
band   3 # energy   -9.16976992 # occ.  2.00000000
 
ion      s     py     pz     px    dxy    dyz    dz2    dxz    dx2    tot
  1  0.031  0.005  0.000  0.015  0.195  0.000  0.062  0.000  0.065  0.372
  2  0.004  0.021  0.058  0.064  0.000  0.000  0.000  0.000  0.000  0.148
  3  0.004  0.021  0.058  0.064  0.000  0.000  0.000  0.000  0.000  0.148
tot  0.040  0.048  0.116  0.143  0.195  0.000  0.062  0.000  0.065  0.668
 
band   4 # energy   -7.91384877 # occ.  2.00000000
 
ion      s     py     pz     px    dxy    dyz    dz2    dxz    dx2    tot
  1  0.000  0.000  0.025  0.000  0.000  0.064  0.000  0.192  0.000  0.282
  2  0.006  0.036  0.038  0.107  0.000  0.000  0.000  0.000  0.000  0.187
  3  0.006  0.036  0.038  0.108  0.000  0.000  0.000  0.000  0.000  0.188
tot  0.012  0.072  0.101  0.216  0.000  0.064  0.000  0.192  0.000  0.658
 
band   5 # energy   -7.89780861 # occ.  2.00000000
 
ion      s     py     pz     px    dxy    dyz    dz2    dxz    dx2    tot
  1  0.112  0.014  0.000  0.043  0.006  0.000  0.075  0.000  0.002  0.252
  2  0.029  0.017  0.095  0.051  0.000  0.000  0.000  0.000  0.000  0.191
  3  0.029  0.017  0.095  0.050  0.000  0.000  0.000  0.000  0.000  0.190
tot  0.170  0.048  0.190  0.143  0.006  0.000  0.075  0.000  0.002  0.634
 
band   6 # energy   -6.49178387 # occ.  2.00000000
 
ion      s     py     pz     px    dxy    dyz    dz2    dxz    dx2    tot