<?xml version="1.0" encoding="ISO-8859-1"?>
<modeling>
 <generator>
  <i name="program" type="string">vasp </i>
  <i name="version" type="string">5.4.1  </i>
  <i name="subversion" type="string">24Jun15 (build Mar 10 2016 20:02:15) complex                          parallel </i>
  <i name="platform" type="string">IFC91_ompi </i>
  <i name="date" type="string">2016 05 02 </i>
  <i name="time" type="string">13:11:55 </i>
 </generator>
 <incar>
  <i type="string" name="PREC">accurate</i>
  <i type="string" name="ALGO"> D</i>
  <i type="int" name="IBRION">     2</i>
  <i name="EDIFF">      0.00000100</i>
  <i type="int" name="NSW">     0</i>
  <i type="int" name="ISIF">     3</i>
  <i name="ENCUT">    500.00000000</i>
  <i name="TIME">      0.40000000</i>
  <i type="int" name="ISMEAR">     1</i>
  <i name="SIGMA">      0.10000000</i>
  <i type="logical" name="LWAVE"> T  </i>
  <i type="logical" name="LVTOT"> T  </i>
  <i type="logical" name="LVHAR"> T  </i>
  <i type="logical" name="LORBIT"> F  </i>
  <v type="int" name="KPOINT_BSE">    -1     0     0     0</v>
  <i type="logical" name="LHFCALC"> T  </i>
  <i name="HFSCREEN">      0.20000000</i>
  <i name="AEXX">      0.25000000</i>
 </incar>
 <kpoints>
  <varray name="kpointlist" >
   <v>       0.00000000       0.00000000       0.00000000 </v>
   <v>       0.07692308       0.00000000       0.00000000 </v>
   <v>       0.15384615       0.00000000       0.00000000 </v>
   <v>       0.23076923       0.00000000       0.00000000 </v>
   <v>       0.30769231       0.00000000       0.00000000 </v>
   <v>       0.38461538       0.00000000       0.00000000 </v>
   <v>       0.46153846       0.00000000       0.00000000 </v>
   <v>       0.07692308       0.07692308       0.00000000 </v>
   <v>       0.15384615       0.07692308       0.00000000 </v>
   <v>       0.23076923       0.07692308       0.00000000 </v>
   <v>       0.30769231       0.07692308       0.00000000 </v>
   <v>       0.38461538       0.07692308       0.00000000 </v>
   <v>       0.46153846       0.07692308       0.00000000 </v>
   <v>       0.15384615       0.15384615       0.00000000 </v>
   <v>       0.23076923       0.15384615       0.00000000 </v>
   <v>       0.30769231       0.15384615       0.00000000 </v>
   <v>       0.38461538       0.15384615       0.00000000 </v>
   <v>       0.23076923       0.23076923       0.00000000 </v>
   <v>       0.30769231       0.23076923       0.00000000 </v>
   <v>       0.38461538       0.23076923       0.00000000 </v>
   <v>       0.30769231       0.30769231       0.00000000 </v>
   <v>       0.00000000       0.00000000       0.00000000 </v>
   <v>       0.02500000       0.00000000       0.00000000 </v>
   <v>       0.05000000       0.00000000       0.00000000 </v>
   <v>       0.07500000       0.00000000       0.00000000 </v>
   <v>       0.10000000       0.00000000       0.00000000 </v>
   <v>       0.12500000       0.00000000       0.00000000 </v>
   <v>       0.15000000       0.00000000       0.00000000 </v>
   <v>       0.17500000       0.00000000       0.00000000 </v>
   <v>       0.20000000       0.00000000       0.00000000 </v>
   <v>       0.22500000       0.00000000       0.00000000 </v>
   <v>       0.25000000       0.00000000       0.00000000 </v>
   <v>       0.27500000       0.00000000       0.00000000 </v>
   <v>       0.30000000       0.00000000       0.00000000 </v>
   <v>       0.32500000       0.00000000       0.00000000 </v>
   <v>       0.35000000       0.00000000       0.00000000 </v>
   <v>       0.37500000       0.00000000       0.00000000 </v>
   <v>       0.40000000       0.00000000       0.00000000 </v>
   <v>       0.42500000       0.00000000       0.00000000 </v>
   <v>       0.45000000       0.00000000       0.00000000 </v>
   <v>       0.47500000       0.00000000       0.00000000 </v>
   <v>       0.50000000       0.00000000       0.00000000 </v>
   <v>       0.50000000       0.00000000       0.00000000 </v>
   <v>       0.49166667       0.01666667       0.00000000 </v>
   <v>       0.48333333       0.03333333       0.00000000 </v>
   <v>       0.47500000       0.05000000       0.00000000 </v>
   <v>       0.46666667       0.06666667       0.00000000 </v>
   <v>       0.45833333       0.08333333       0.00000000 </v>
   <v>       0.45000000       0.10000000       0.00000000 </v>
   <v>       0.44166667       0.11666667       0.00000000 </v>
   <v>       0.43333333       0.13333333       0.00000000 </v>
   <v>       0.42500000       0.15000000       0.00000000 </v>
   <v>       0.41666667       0.16666667       0.00000000 </v>
   <v>       0.40833333       0.18333333       0.00000000 </v>
   <v>       0.40000000       0.20000000       0.00000000 </v>
   <v>       0.39166667       0.21666667       0.00000000 </v>
   <v>       0.38333333       0.23333333       0.00000000 </v>
   <v>       0.37500000       0.25000000       0.00000000 </v>
   <v>       0.36666667       0.26666667       0.00000000 </v>
   <v>       0.35833333       0.28333333       0.00000000 </v>
   <v>       0.35000000       0.30000000       0.00000000 </v>
   <v>       0.34166667       0.31666667       0.00000000 </v>
   <v>       0.33333333       0.33333333       0.00000000 </v>
   <v>       0.33333333       0.33333333       0.00000000 </v>
   <v>       0.31666667       0.31666667       0.00000000 </v>
   <v>       0.30000000       0.30000000       0.00000000 </v>
   <v>       0.28333333       0.28333333       0.00000000 </v>
   <v>       0.26666667       0.26666667       0.00000000 </v>
   <v>       0.25000000       0.25000000       0.00000000 </v>
   <v>       0.23333333       0.23333333       0.00000000 </v>
   <v>       0.21666667       0.21666667       0.00000000 </v>
   <v>       0.20000000       0.20000000       0.00000000 </v>
   <v>       0.18333333       0.18333333       0.00000000 </v>
   <v>       0.16666667       0.16666667       0.00000000 </v>
   <v>       0.15000000       0.15000000       0.00000000 </v>
   <v>       0.13333333       0.13333333       0.00000000 </v>
   <v>       0.11666667       0.11666667       0.00000000 </v>
   <v>       0.10000000       0.10000000       0.00000000 </v>
   <v>       0.08333333       0.08333333       0.00000000 </v>
   <v>       0.06666667       0.06666667       0.00000000 </v>
   <v>       0.05000000       0.05000000       0.00000000 </v>
   <v>       0.03333333       0.03333333       0.00000000 </v>
   <v>       0.01666667       0.01666667       0.00000000 </v>
   <v>       0.00000000       0.00000000       0.00000000 </v>
  </varray>
  <varray name="weights" >
   <v>       0.00591716 </v>
   <v>       0.03550296 </v>
   <v>       0.03550296 </v>
   <v>       0.03550296 </v>
   <v>       0.03550296 </v>
   <v>       0.03550296 </v>
   <v>       0.03550296 </v>
   <v>       0.03550296 </v>
   <v>       0.07100592 </v>
   <v>       0.07100592 </v>
   <v>       0.07100592 </v>
   <v>       0.07100592 </v>
   <v>       0.03550296 </v>
   <v>       0.03550296 </v>
   <v>       0.07100592 </v>
   <v>       0.07100592 </v>
   <v>       0.07100592 </v>
   <v>       0.03550296 </v>
   <v>       0.07100592 </v>
   <v>       0.03550296 </v>
   <v>       0.03550296 </v>
   <v>       0.00000000 </v>
   <v>       0.00000000 </v>
   <v>       0.00000000 </v>
   <v>       0.00000000 </v>
   <v>       0.00000000 </v>
   <v>       0.00000000 </v>
   <v>       0.00000000 </v>
   <v>       0.00000000 </v>
   <v>       0.00000000 </v>
   <v>       0.00000000 </v>
   <v>       0.00000000 </v>
   <v>       0.00000000 </v>
   <v>       0.00000000 </v>
   <v>       0.00000000 </v>
   <v>       0.00000000 </v>
   <v>       0.00000000 </v>
   <v>       0.00000000 </v>
   <v>       0.00000000 </v>
   <v>       0.00000000 </v>
   <v>       0.00000000 </v>
   <v>       0.00000000 </v>
   <v>       0.00000000 </v>
   <v>       0.00000000 </v>
   <v>       0.00000000 </v>
   <v>       0.00000000 </v>
   <v>       0.00000000 </v>
   <v>       0.00000000 </v>
   <v>       0.00000000 </v>
   <v>       0.00000000 </v>
   <v>       0.00000000 </v>
   <v>       0.00000000 </v>
   <v>       0.00000000 </v>
   <v>       0.00000000 </v>
   <v>       0.00000000 </v>
   <v>       0.00000000 </v>
   <v>       0.00000000 </v>
   <v>       0.00000000 </v>
   <v>       0.00000000 </v>
   <v>       0.00000000 </v>
   <v>       0.00000000 </v>
   <v>       0.00000000 </v>
   <v>       0.00000000 </v>
   <v>       0.00000000 </v>
   <v>       0.00000000 </v>
   <v>       0.00000000 </v>
   <v>       0.00000000 </v>
   <v>       0.00000000 </v>
   <v>       0.00000000 </v>
   <v>       0.00000000 </v>
   <v>       0.00000000 </v>
   <v>       0.00000000 </v>
   <v>       0.00000000 </v>
   <v>       0.00000000 </v>
   <v>       0.00000000 </v>
   <v>       0.00000000 </v>
   <v>       0.00000000 </v>
   <v>       0.00000000 </v>
   <v>       0.00000000 </v>
   <v>       0.00000000 </v>
   <v>       0.00000000 </v>
   <v>       0.00000000 </v>
   <v>       0.00000000 </v>
   <v>       0.00000000 </v>
  </varray>
 </kpoints>
 <parameters>
  <separator name="general" >
   <i type="string" name="SYSTEM">unknown system</i>
   <i type="logical" name="LCOMPAT"> F  </i>
  </separator>
  <separator name="electronic" >
   <i type="string" name="PREC">accura</i>
   <i name="ENMAX">    500.00000000</i>
   <i name="ENAUG">    345.27800000</i>
   <i name="EDIFF">      0.00000100</i>
   <i type="int" name="IALGO">    53</i>
   <i type="int" name="IWAVPR">    10</i>
   <i type="int" name="NBANDS">    16</i>
   <i name="NELECT">     18.00000000</i>
   <i type="int" name="TURBO">     0</i>
   <i type="int" name="IRESTART">     0</i>
   <i type="int" name="NREBOOT">     0</i>
   <i type="int" name="NMIN">     0</i>
   <i name="EREF">      0.00000000</i>
   <separator name="electronic smearing" >
    <i type="int" name="ISMEAR">     1</i>
    <i name="SIGMA">      0.10000000</i>
    <i name="KSPACING">      0.50000000</i>
    <i type="logical" name="KGAMMA"> T  </i>
   </separator>
   <separator name="electronic projectors" >
    <i type="logical" name="LREAL"> F  </i>
    <v name="ROPT">      0.00000000      0.00000000</v>
    <i type="int" name="LMAXPAW">  -100</i>
    <i type="int" name="LMAXMIX">     2</i>
    <i type="logical" name="NLSPLINE"> F  </i>
   </separator>
   <separator name="electronic startup" >
    <i type="int" name="ISTART">     1</i>
    <i type="int" name="ICHARG">     0</i>
    <i type="int" name="INIWAV">     1</i>
   </separator>
   <separator name="electronic spin" >
    <i type="int" name="ISPIN">     1</i>
    <i type="logical" name="LNONCOLLINEAR"> F  </i>
    <v name="MAGMOM">      1.00000000      1.00000000      1.00000000</v>
    <i name="NUPDOWN">     -1.00000000</i>
    <i type="logical" name="LSORBIT"> F  </i>
    <v name="SAXIS">      0.00000000      0.00000000      1.00000000</v>
    <i type="logical" name="LSPIRAL"> F  </i>
    <v name="QSPIRAL">      0.00000000      0.00000000      0.00000000</v>
    <i type="logical" name="LZEROZ"> F  </i>
   </separator>
   <separator name="electronic exchange-correlation" >
    <i type="logical" name="LASPH"> F  </i>
    <i type="logical" name="LMETAGGA"> F  </i>
   </separator>
   <separator name="electronic convergence" >
    <i type="int" name="NELM">    60</i>
    <i type="int" name="NELMDL">     0</i>
    <i type="int" name="NELMIN">     2</i>
    <i name="ENINI">    500.00000000</i>
    <separator name="electronic convergence detail" >
     <i type="logical" name="LDIAG"> T  </i>
     <i type="logical" name="LSUBROT"> F  </i>
     <i name="WEIMIN">      0.00000000</i>
     <i name="EBREAK">      0.00000002</i>
     <i name="DEPER">      0.30000000</i>
     <i type="int" name="NRMM">     4</i>
     <i name="TIME">      0.40000000</i>
    </separator>
   </separator>
   <separator name="electronic mixer" >
    <i name="AMIX">      0.40000000</i>
    <i name="BMIX">      1.00000000</i>
    <i name="AMIN">      0.10000000</i>
    <i name="AMIX_MAG">      1.60000000</i>
    <i name="BMIX_MAG">      1.00000000</i>
    <separator name="electronic mixer details" >
     <i type="int" name="IMIX">     4</i>
     <i type="logical" name="MIXFIRST"> F  </i>
     <i type="int" name="MAXMIX">   -45</i>
     <i name="WC">    100.00000000</i>
     <i type="int" name="INIMIX">     1</i>
     <i type="int" name="MIXPRE">     1</i>
     <i type="int" name="MREMOVE">     5</i>
    </separator>
   </separator>
   <separator name="electronic dipolcorrection" >
    <i type="logical" name="LDIPOL"> F  </i>
    <i type="logical" name="LMONO"> F  </i>
    <i type="int" name="IDIPOL">     0</i>
    <i name="EPSILON">      1.00000000</i>
    <v name="DIPOL">   -100.00000000   -100.00000000   -100.00000000</v>
    <i name="EFIELD">      0.00000000</i>
   </separator>
  </separator>
  <separator name="grids" >
   <i type="int" name="NGX">    24</i>
   <i type="int" name="NGY">    24</i>
   <i type="int" name="NGZ">   180</i>
   <i type="int" name="NGXF">    48</i>
   <i type="int" name="NGYF">    48</i>
   <i type="int" name="NGZF">   360</i>
   <i type="logical" name="ADDGRID"> F  </i>
  </separator>
  <separator name="ionic" >
   <i type="int" name="NSW">     0</i>
   <i type="int" name="IBRION">    -1</i>
   <i type="int" name="ISIF">     3</i>
   <i name="PSTRESS">      0.00000000</i>
   <i name="EDIFFG">      0.00001000</i>
   <i type="int" name="NFREE">     1</i>
   <i name="POTIM">      0.50000000</i>
   <i name="SMASS">     -3.00000000</i>
   <i name="SCALEE">      1.00000000</i>
  </separator>
  <separator name="ionic md" >
   <i name="TEBEG">      0.00010000</i>
   <i name="TEEND">      0.00010000</i>
   <i type="int" name="NBLOCK">     1</i>
   <i type="int" name="KBLOCK">     1</i>
   <i type="int" name="NPACO">   256</i>
   <i name="APACO">     16.00000000</i>
  </separator>
  <separator name="symmetry" >
   <i type="int" name="ISYM">     3</i>
   <i name="SYMPREC">      0.00001000</i>
  </separator>
  <separator name="dos" >
   <i type="logical" name="LORBIT"> F  </i>
   <v name="RWIGS">     -1.00000000     -1.00000000</v>
   <i type="int" name="NEDOS">   301</i>
   <i name="EMIN">     10.00000000</i>
   <i name="EMAX">    -10.00000000</i>
   <i name="EFERMI">      0.00000000</i>
  </separator>
  <separator name="writing" >
   <i type="int" name="NWRITE">     2</i>
   <i type="logical" name="LWAVE"> T  </i>
   <i type="logical" name="LCHARG"> T  </i>
   <i type="logical" name="LPARD"> F  </i>
   <i type="logical" name="LVTOT"> F  </i>
   <i type="logical" name="LVHAR"> T  </i>
   <i type="logical" name="LELF"> F  </i>
   <i type="logical" name="LOPTICS"> F  </i>
   <v name="STM">      0.00000000      0.00000000      0.00000000      0.00000000      0.00000000      0.00000000      0.00000000</v>
  </separator>
  <separator name="performance" >
   <i type="int" name="NPAR">     8</i>
   <i type="int" name="NSIM">     4</i>
   <i type="int" name="NBLK">    -1</i>
   <i type="logical" name="LPLANE"> T  </i>
   <i type="logical" name="LSCALAPACK"> T  </i>
   <i type="logical" name="LSCAAWARE"> F  </i>
   <i type="logical" name="LSCALU"> F  </i>
   <i type="logical" name="LASYNC"> F  </i>
   <i type="logical" name="LORBITALREAL"> F  </i>
  </separator>
  <separator name="miscellaneous" >
   <i type="int" name="IDIOT">     3</i>
   <i type="logical" name="LMUSIC"> F  </i>
   <v name="POMASS">     95.94000000     32.06600000</v>
   <v name="DARWINR">      0.00000000      0.00000000</v>
   <v name="DARWINV">      1.00000000      1.00000000</v>
   <i type="logical" name="LCORR"> T  </i>
  </separator>
  <i type="logical" name="GGA_COMPAT"> T  </i>
  <i type="logical" name="LBERRY"> F  </i>
  <i type="int" name="ICORELEVEL">     0</i>
  <i type="logical" name="LDAU"> F  </i>
  <i type="int" name="I_CONSTRAINED_M">     0</i>
  <separator name="electronic exchange-correlation" >
   <i type="string" name="GGA">--</i>
   <i type="int" name="VOSKOWN">     0</i>
   <i type="logical" name="LHFCALC"> T  </i>
   <i type="string" name="PRECFOCK">normal</i>
   <i type="logical" name="LSYMGRAD"> F  </i>
   <i type="logical" name="LHFONE"> F  </i>
   <i type="logical" name="LRHFCALC"> F  </i>
   <i type="logical" name="LTHOMAS"> F  </i>
   <i type="logical" name="LMODELHF"> F  </i>
   <i name="ENCUT4O">     -1.00000000</i>
   <i type="int" name="EXXOEP">     0</i>
   <i type="int" name="FOURORBIT">     0</i>
   <i name="AEXX">      0.25000000</i>
   <i name="HFALPHA">     -1.00000000</i>
   <i name="MCALPHA">      0.00000000</i>
   <i name="ALDAX">      0.75000000</i>
   <i name="AGGAX">      0.75000000</i>
   <i name="ALDAC">      1.00000000</i>
   <i name="AGGAC">      1.00000000</i>
   <i type="int" name="NKREDX">     1</i>
   <i type="int" name="NKREDY">     1</i>
   <i type="int" name="NKREDZ">     1</i>
   <i type="logical" name="SHIFTRED"> F  </i>
   <i type="logical" name="ODDONLY"> F  </i>
   <i type="logical" name="EVENONLY"> F  </i>
   <i type="int" name="LMAXFOCK">     4</i>
   <i type="int" name="NMAXFOCKAE">     1</i>
   <i type="logical" name="LFOCKAEDFT"> F  </i>
   <i name="HFSCREEN">      0.20000000</i>
   <i name="HFSCREENC">      0.20000000</i>
   <i type="int" name="NBANDSGWLOW">     1</i>
  </separator>
  <separator name="vdW DFT" >
   <i type="logical" name="LUSE_VDW"> F  </i>
   <i name="Zab_VDW">     -0.84910000</i>
   <i name="PARAM1">      0.12340000</i>
   <i name="PARAM2">      1.00000000</i>
   <i name="PARAM3">      0.00000000</i>
  </separator>
  <separator name="model GW" >
   <i type="int" name="MODEL_GW">     0</i>
   <i name="MODEL_EPS0">     40.77833948</i>
   <i name="MODEL_ALPHA">      1.00000000</i>
  </separator>
  <separator name="linear response parameters" >
   <i type="logical" name="LEPSILON"> F  </i>
   <i type="logical" name="LRPA"> F  </i>
   <i type="logical" name="LNABLA"> F  </i>
   <i type="logical" name="LVEL"> F  </i>
   <i type="int" name="KINTER">     0</i>
   <i name="CSHIFT">      0.10000000</i>
   <i name="OMEGAMAX">     -1.00000000</i>
   <i name="DEG_THRESHOLD">      0.00200000</i>
  </separator>
  <separator name="orbital magnetization" >
   <i type="logical" name="NUCIND"> F  </i>
   <v name="MAGPOS">      0.00000000      0.00000000      0.00000000</v>
   <i type="logical" name="LNICSALL"> T  </i>
   <i type="logical" name="ORBITALMAG"> F  </i>
   <i type="logical" name="LMAGBLOCH"> F  </i>
   <i type="logical" name="LCHIMAG"> F  </i>
   <i type="logical" name="LGAUGE"> T  </i>
   <i type="int" name="MAGATOM">     0</i>
   <v name="MAGDIPOL">      0.00000000      0.00000000      0.00000000</v>
   <v name="AVECCONST">      0.00000000      0.00000000      0.00000000</v>
  </separator>
  <separator name="response functions" >
   <i type="logical" name="LADDER"> F  </i>
   <i type="logical" name="LFXC"> F  </i>
   <i type="logical" name="LHARTREE"> T  </i>
   <i type="int" name="IBSE">     0</i>
   <v type="int" name="KPOINT">    -1     0     0     0</v>
   <i type="logical" name="LTCTE"> F  </i>
   <i type="logical" name="LTETE"> F  </i>
   <i type="logical" name="LTRIPLET"> F  </i>
   <i type="logical" name="LFXCEPS"> F  </i>
   <i type="logical" name="LFXHEG"> F  </i>
   <i type="int" name="NATURALO">     0</i>
   <i type="logical" name="L2ORDER"> F  </i>
   <i type="logical" name="LUSEW"> F  </i>
   <i name="ENCUTGW">     -2.00000000</i>
   <i name="ENCUTGWSOFT">     -2.00000000</i>
   <i name="ENCUTLF">     -1.00000000</i>
   <i type="int" name="LMAXMP2">    -1</i>
   <i name="SCISSOR">      0.00000000</i>
   <i type="int" name="NOMEGA">     0</i>
   <i type="int" name="NOMEGAR">     0</i>
   <i type="int" name="NBANDSGW">    -1</i>
   <i type="int" name="NBANDSO">    -1</i>
   <i type="int" name="NBANDSV">    -1</i>
   <i type="int" name="NELM">     1</i>
   <i type="int" name="NELMHF">     1</i>
   <i type="int" name="DIM">     3</i>
   <i type="int" name="ANTIRES">     0</i>
   <i name="OMEGAMAX">    -30.00000000</i>
   <i name="OMEGAMIN">    -30.00000000</i>
   <i name="OMEGATL">   -200.00000000</i>
   <i type="int" name="OMEGAGRID">     0</i>
   <i name="CSHIFT">     -0.10000000</i>
   <i type="logical" name="SELFENERGY"> F  </i>
   <i type="logical" name="LSPECTRAL"> F  </i>
   <i type="logical" name="LSPECTRALGW"> F  </i>
   <i type="logical" name="LSINGLES"> F  </i>
   <i type="logical" name="LFERMIGW"> F  </i>
   <i type="logical" name="ODDONLYGW"> F  </i>
   <i type="logical" name="EVENONLYGW"> F  </i>
   <i type="int" name="NKREDLFX">     1</i>
   <i type="int" name="NKREDLFY">     1</i>
   <i type="int" name="NKREDLFZ">     1</i>
   <i type="int" name="MAXMEM">  1800</i>
   <i type="int" name="TELESCOPE">     0</i>
   <i type="int" name="TAUPAR">     1</i>
   <i type="int" name="OMEGAPAR">    -1</i>
   <i name="LAMBDA">      1.00000000</i>
  </separator>
  <separator name="External order field" >
   <i name="OFIELD_KAPPA">      0.00000000</i>
   <v name="OFIELD_K">      0.00000000      0.00000000      0.00000000</v>
   <i name="OFIELD_Q6_NEAR">      0.00000000</i>
   <i name="OFIELD_Q6_FAR">      0.00000000</i>
   <i name="OFIELD_A">      0.00000000</i>
  </separator>
 </parameters>
 <atominfo>
  <atoms>       3 </atoms>
  <types>       2 </types>
  <array name="atoms" >
   <dimension dim="1">ion</dimension>
   <field type="string">element</field>
   <field type="int">atomtype</field>
   <set>
    <rc><c>Mo</c><c>   1</c></rc>
    <rc><c>S </c><c>   2</c></rc>
    <rc><c>S </c><c>   2</c></rc>
   </set>
  </array>
  <array name="atomtypes" >
   <dimension dim="1">type</dimension>
   <field type="int">atomspertype</field>
   <field type="string">element</field>
   <field>mass</field>
   <field>valence</field>
   <field type="string">pseudopotential</field>
   <set>
    <rc><c>   1</c><c>Mo</c><c>     95.94000000</c><c>      6.00000000</c><c> PAW_PBE Mo 08Apr2002                   </c></rc>
    <rc><c>   2</c><c>S </c><c>     32.06600000</c><c>      6.00000000</c><c>  PAW_PBE S 17Jan2003                   </c></rc>
   </set>
  </array>
 </atominfo>
 <structure name="initialpos" >
  <crystal>
   <varray name="basis" >
    <v>       3.18948369       0.00000000       0.00000000 </v>
    <v>      -1.59474135       2.76217501       0.00000000 </v>
    <v>       0.00000000       0.00000000      23.14344274 </v>
   </varray>
   <i name="volume">    203.89169741 </i>
   <varray name="rec_basis" >
    <v>       0.31353037       0.18101671       0.00000000 </v>
    <v>       0.00000000       0.36203354       0.00000000 </v>
    <v>       0.00000000       0.00000000       0.04320878 </v>
   </varray>
  </crystal>
  <varray name="positions" >
   <v>       0.66666700       0.33333300       0.49972185 </v>
   <v>       0.33333300       0.66666700       0.43182203 </v>
   <v>       0.33333300       0.66666700       0.56761868 </v>
  </varray>
 </structure>
 <calculation>
  <scstep>
   <time name="total">  673.07  673.63</time>
   <energy>
    <i name="alphaZ">     14.54134381 </i>
    <i name="ewald">   3278.24833885 </i>
    <i name="hartreedc">  -3980.11315808 </i>
    <i name="XCdc">    -29.33290023 </i>
    <i name="pawpsdc">    467.72221643 </i>
    <i name="pawaedc">   -407.04281286 </i>
    <i name="eentropy">      0.00070170 </i>
    <i name="bandstr">   -163.65840090 </i>
    <i name="atom">    761.63637306 </i>
    <i name="e_fr_energy">    -28.35375257 </i>
    <i name="e_wo_entrp">    -28.35445428 </i>
    <i name="e_0_energy">    -28.35398648 </i>
   </energy>
  </scstep>
  <scstep>
   <time name="total">  685.96  686.54</time>
   <energy>
    <i name="e_fr_energy">    -28.42962168 </i>
    <i name="e_wo_entrp">    -28.43028552 </i>
    <i name="e_0_energy">    -28.42984296 </i>
   </energy>
  </scstep>
  <scstep>
   <time name="total">  690.98  691.60</time>
   <energy>
    <i name="e_fr_energy">    -28.45622862 </i>
    <i name="e_wo_entrp">    -28.45686881 </i>
    <i name="e_0_energy">    -28.45644202 </i>
   </energy>
  </scstep>
  <scstep>
   <time name="total">  686.32  686.86</time>
   <energy>
    <i name="e_fr_energy">    -28.46309221 </i>
    <i name="e_wo_entrp">    -28.46372185 </i>
    <i name="e_0_energy">    -28.46330209 </i>
   </energy>
  </scstep>
  <scstep>
   <time name="total">  684.93  685.49</time>
   <energy>
    <i name="e_fr_energy">    -28.46678385 </i>
    <i name="e_wo_entrp">    -28.46740691 </i>
    <i name="e_0_energy">    -28.46699154 </i>
   </energy>
  </scstep>
  <scstep>
   <time name="total">  695.01  695.76</time>
   <energy>
    <i name="e_fr_energy">    -28.46838608 </i>
    <i name="e_wo_entrp">    -28.46900226 </i>
    <i name="e_0_energy">    -28.46859147 </i>
   </energy>
  </scstep>
  <scstep>
   <time name="total">  683.52  684.05</time>
   <energy>
    <i name="e_fr_energy">    -28.46903312 </i>
    <i name="e_wo_entrp">    -28.46964208 </i>
    <i name="e_0_energy">    -28.46923611 </i>
   </energy>
  </scstep>
  <scstep>
   <time name="total">  687.30  688.19</time>
   <energy>
    <i name="e_fr_energy">    -28.46934564 </i>
    <i name="e_wo_entrp">    -28.46994767 </i>
    <i name="e_0_energy">    -28.46954632 </i>
   </energy>
  </scstep>
  <scstep>
   <time name="total">  687.72  688.44</time>
   <energy>
    <i name="e_fr_energy">    -28.46948331 </i>
    <i name="e_wo_entrp">    -28.47007916 </i>
    <i name="e_0_energy">    -28.46968193 </i>
   </energy>
  </scstep>
  <scstep>
   <time name="total">  682.22  682.76</time>
   <energy>
    <i name="e_fr_energy">    -28.46953706 </i>
    <i name="e_wo_entrp">    -28.47012767 </i>
    <i name="e_0_energy">    -28.46973393 </i>
   </energy>
  </scstep>
  <scstep>
   <time name="total">  692.99  693.56</time>
   <energy>
    <i name="e_fr_energy">    -28.46955962 </i>
    <i name="e_wo_entrp">    -28.47014601 </i>
    <i name="e_0_energy">    -28.46975508 </i>
   </energy>
  </scstep>
  <scstep>
   <time name="total">  687.38  688.16</time>
   <energy>
    <i name="e_fr_energy">    -28.46956992 </i>
    <i name="e_wo_entrp">    -28.47015317 </i>
    <i name="e_0_energy">    -28.46976434 </i>
   </energy>
  </scstep>
  <scstep>
   <time name="total">  690.09  691.30</time>
   <energy>
    <i name="e_fr_energy">    -28.46957441 </i>
    <i name="e_wo_entrp">    -28.47015544 </i>
    <i name="e_0_energy">    -28.46976809 </i>
   </energy>
  </scstep>
  <scstep>
   <time name="total">  688.56  689.59</time>
   <energy>
    <i name="e_fr_energy">    -28.46957628 </i>
    <i name="e_wo_entrp">    -28.47015578 </i>
    <i name="e_0_energy">    -28.46976945 </i>
   </energy>
  </scstep>
  <scstep>
   <time name="total">  685.95  686.50</time>
   <energy>
    <i name="alphaZ">     14.54134381 </i>
    <i name="ewald">   3278.24833885 </i>
    <i name="hartreedc">  -3980.42495662 </i>
    <i name="XCdc">    -29.33318663 </i>
    <i name="pawpsdc">    461.78839653 </i>
    <i name="pawaedc">   -401.05005145 </i>
    <i name="eentropy">      0.00057845 </i>
    <i name="bandstr">   -163.52895309 </i>
    <i name="atom">    761.63637306 </i>
    <i name="e_fr_energy">    -28.46957707 </i>
    <i name="e_wo_entrp">    -28.47015552 </i>
    <i name="e_0_energy">    -28.46976989 </i>
   </energy>
  </scstep>
  <structure>
   <crystal>
    <varray name="basis" >
     <v>       3.18948369       0.00000000       0.00000000 </v>
     <v>      -1.59474135       2.76217501       0.00000000 </v>
     <v>       0.00000000       0.00000000      23.14344274 </v>
    </varray>
    <i name="volume">    203.89169741 </i>
    <varray name="rec_basis" >
     <v>       0.31353037       0.18101671       0.00000000 </v>
     <v>       0.00000000       0.36203354       0.00000000 </v>
     <v>       0.00000000       0.00000000       0.04320878 </v>
    </varray>
   </crystal>
   <varray name="positions" >
    <v>       0.66666700       0.33333300       0.49972185 </v>
    <v>       0.33333300       0.66666700       0.43182203 </v>
    <v>       0.33333300       0.66666700       0.56761868 </v>
   </varray>
  </structure>
  <varray name="forces" >
   <v>              NaN              NaN              NaN </v>
   <v>              NaN              NaN              NaN </v>
   <v>              NaN              NaN              NaN </v>
  </varray>
  <varray name="stress" >
   <v>              NaN              NaN              NaN </v>
   <v>              NaN              NaN              NaN </v>
   <v>              NaN              NaN              NaN </v>
  </varray>
  <energy>
   <i name="e_fr_energy">    -28.46957707 </i>
   <i name="e_wo_entrp">    -28.46976989 </i>
   <i name="e_0_energy">      0.00057845 </i>
  </energy>
  <time name="totalsc">11268.3611279.93</time>
  <eigenvalues>
   <array>
    <dimension dim="1">band</dimension>
    <dimension dim="2">kpoint</dimension>
    <dimension dim="3">spin</dimension>
    <field>eigene</field>
    <field>occ</field>
    <set>
     <set comment="spin 1">
      <set comment="kpoint 1">
       <r>  -19.0775    1.0000 </r>
       <r>  -17.7792    1.0000 </r>
       <r>   -9.7470    1.0000 </r>
       <r>   -6.4102    1.0000 </r>
       <r>   -6.4102    1.0000 </r>
       <r>   -5.5388    1.0000 </r>
       <r>   -5.0855    1.0000 </r>
       <r>   -5.0855    1.0000 </r>
       <r>   -3.5438    1.0136 </r>
       <r>    0.0387    0.0000 </r>
       <r>    0.0387    0.0000 </r>
       <r>    0.2384    0.0000 </r>
       <r>    0.2385    0.0000 </r>
       <r>    2.5415    0.0000 </r>
       <r>    2.7017    0.0000 </r>
       <r>    3.2035    0.0000 </r>
      </set>
      <set comment="kpoint 2">
       <r>  -18.9868    1.0000 </r>
       <r>  -17.7345    1.0000 </r>
       <r>   -9.6365    1.0000 </r>
       <r>   -6.6252    1.0000 </r>
       <r>   -6.3087    1.0000 </r>
       <r>   -5.9475    1.0000 </r>
       <r>   -5.2418    1.0000 </r>
       <r>   -4.8411    1.0000 </r>
       <r>   -3.5957    1.0305 </r>
       <r>   -0.0913    0.0000 </r>
       <r>   -0.0239    0.0000 </r>
       <r>    0.1273    0.0000 </r>
       <r>    0.2023    0.0000 </r>
       <r>    2.6906    0.0000 </r>
       <r>    2.8202    0.0000 </r>
       <r>    3.3404    0.0000 </r>
      </set>
      <set comment="kpoint 3">
       <r>  -18.7256    1.0000 </r>
       <r>  -17.6062    1.0000 </r>
       <r>   -9.3469    1.0000 </r>
       <r>   -7.1479    1.0000 </r>
       <r>   -6.5778    1.0000 </r>
       <r>   -6.0228    1.0000 </r>
       <r>   -5.6253    1.0000 </r>
       <r>   -4.7599    1.0000 </r>
       <r>   -3.8082    1.0000 </r>
       <r>   -0.4756    0.0000 </r>
       <r>   -0.1869    0.0000 </r>
       <r>   -0.1409    0.0000 </r>
       <r>    0.5914    0.0000 </r>
       <r>    3.0558    0.0000 </r>
       <r>    3.1664    0.0000 </r>
       <r>    3.7007    0.0000 </r>
      </set>
      <set comment="kpoint 4">
       <r>  -18.3287    1.0000 </r>
       <r>  -17.4127    1.0000 </r>
       <r>   -9.0601    1.0000 </r>
       <r>   -7.6896    1.0000 </r>
       <r>   -7.2507    1.0000 </r>
       <r>   -6.0804    1.0000 </r>
       <r>   -5.6107    1.0000 </r>
       <r>   -4.9886    1.0000 </r>
       <r>   -4.2118    1.0000 </r>
       <r>   -0.6896    0.0000 </r>
       <r>   -0.4311    0.0000 </r>
       <r>    0.0612    0.0000 </r>
       <r>    1.0179    0.0000 </r>
       <r>    3.5889    0.0000 </r>
       <r>    3.7206    0.0000 </r>
       <r>    4.2590    0.0000 </r>
      </set>
      <set comment="kpoint 5">
       <r>  -17.8596    1.0000 </r>
       <r>  -17.1880    1.0000 </r>
       <r>   -9.1698    1.0000 </r>
       <r>   -7.9138    1.0000 </r>
       <r>   -7.8978    1.0000 </r>
       <r>   -6.4918    1.0000 </r>
       <r>   -5.3102    1.0000 </r>
       <r>   -5.1698    1.0000 </r>
       <r>   -4.5509    1.0000 </r>
       <r>   -0.6263    0.0000 </r>
       <r>   -0.5993    0.0000 </r>
       <r>    0.5428    0.0000 </r>
       <r>    1.3539    0.0000 </r>
       <r>    4.2413    0.0000 </r>
       <r>    4.4366    0.0000 </r>
       <r>    5.0117    0.0000 </r>
      </set>
      <set comment="kpoint 6">
       <r>  -17.4190    1.0000 </r>
       <r>  -16.9827    1.0000 </r>
       <r>   -9.5758    1.0000 </r>
       <r>   -8.4673    1.0000 </r>
       <r>   -7.9578    1.0000 </r>
       <r>   -6.7936    1.0000 </r>
       <r>   -5.5513    1.0000 </r>
       <r>   -4.8152    1.0000 </r>
       <r>   -4.5204    1.0000 </r>
       <r>   -0.6809    0.0000 </r>
       <r>   -0.3519    0.0000 </r>
       <r>    1.0009    0.0000 </r>
       <r>    1.5614    0.0000 </r>
       <r>    4.4586    0.0000 </r>
       <r>    5.1217    0.0000 </r>
       <r>    5.1657    0.0000 </r>
      </set>
      <set comment="kpoint 7">
       <r>  -17.1417    1.0000 </r>
       <r>  -16.8575    1.0000 </r>
       <r>   -9.8685    1.0000 </r>
       <r>   -8.7865    1.0000 </r>
       <r>   -8.0580    1.0000 </r>
       <r>   -6.9518    1.0000 </r>
       <r>   -5.6693    1.0000 </r>
       <r>   -4.6267    1.0000 </r>
       <r>   -4.3028    1.0000 </r>
       <r>   -0.6552    0.0000 </r>
       <r>   -0.1234    0.0000 </r>
       <r>    1.2525    0.0000 </r>
       <r>    1.6550    0.0000 </r>
       <r>    3.7209    0.0000 </r>
       <r>    5.3716    0.0000 </r>
       <r>    5.6434    0.0000 </r>
      </set>
      <set comment="kpoint 8">
       <r>  -18.8107    1.0000 </r>
       <r>  -17.6479    1.0000 </r>
       <r>   -9.4342    1.0000 </r>
       <r>   -6.9877    1.0000 </r>
       <r>   -6.3710    1.0000 </r>
       <r>   -6.1220    1.0000 </r>
       <r>   -5.6031    1.0000 </r>
       <r>   -4.6745    1.0000 </r>
       <r>   -3.7285    1.0003 </r>
       <r>   -0.3631    0.0000 </r>
       <r>   -0.2380    0.0000 </r>
       <r>   -0.0733    0.0000 </r>
       <r>    0.5109    0.0000 </r>
       <r>    2.9433    0.0000 </r>
       <r>    3.0528    0.0000 </r>
       <r>    3.5863    0.0000 </r>
      </set>
      <set comment="kpoint 9">
       <r>  -18.4810    1.0000 </r>
       <r>  -17.4863    1.0000 </r>
       <r>   -9.1254    1.0000 </r>
       <r>   -7.5052    1.0000 </r>
       <r>   -6.9188    1.0000 </r>
       <r>   -6.1613    1.0000 </r>
       <r>   -5.8088    1.0000 </r>
       <r>   -4.6961    1.0000 </r>
       <r>   -4.0450    1.0000 </r>
       <r>   -0.6987    0.0000 </r>
       <r>   -0.3243    0.0000 </r>
       <r>   -0.2117    0.0000 </r>
       <r>    0.9632    0.0000 </r>
       <r>    3.3930    0.0000 </r>
       <r>    3.5052    0.0000 </r>
       <r>    4.0453    0.0000 </r>
      </set>
      <set comment="kpoint 10">
       <r>  -18.0456    1.0000 </r>
       <r>  -17.2750    1.0000 </r>
       <r>   -9.0156    1.0000 </r>
       <r>   -7.8350    1.0000 </r>
       <r>   -7.5768    1.0000 </r>
       <r>   -6.6026    1.0000 </r>
       <r>   -5.4994    1.0000 </r>
       <r>   -4.9697    1.0000 </r>
       <r>   -4.4018    1.0000 </r>
       <r>   -0.8270   -0.0000 </r>
       <r>   -0.4421    0.0000 </r>
       <r>    0.1302    0.0000 </r>
       <r>    1.3569    0.0000 </r>
       <r>    4.0036    0.0000 </r>
       <r>    4.1496    0.0000 </r>
       <r>    4.7055    0.0000 </r>
      </set>
      <set comment="kpoint 11">
       <r>  -17.5851    1.0000 </r>
       <r>  -17.0557    1.0000 </r>
       <r>   -9.3216    1.0000 </r>
       <r>   -8.2359    1.0000 </r>
       <r>   -7.8736    1.0000 </r>
       <r>   -6.8530    1.0000 </r>
       <r>   -5.3308    1.0000 </r>
       <r>   -5.3141    1.0000 </r>
       <r>   -4.4258    1.0000 </r>
       <r>   -0.7576   -0.0000 </r>
       <r>   -0.3879    0.0000 </r>
       <r>    0.6162    0.0000 </r>
       <r>    1.5848    0.0000 </r>
       <r>    4.6404    0.0000 </r>
       <r>    4.9138    0.0000 </r>
       <r>    5.4012    0.0000 </r>
      </set>
      <set comment="kpoint 12">
       <r>  -17.2175    1.0000 </r>
       <r>  -16.8852    1.0000 </r>
       <r>   -9.6721    1.0000 </r>
       <r>   -8.7150    1.0000 </r>
       <r>   -7.9721    1.0000 </r>
       <r>   -6.9705    1.0000 </r>
       <r>   -5.5741    1.0000 </r>
       <r>   -5.1896    1.0000 </r>
       <r>   -4.1859    1.0000 </r>
       <r>   -0.6590    0.0000 </r>
       <r>   -0.1892    0.0000 </r>
       <r>    1.0609    0.0000 </r>
       <r>    1.6000    0.0000 </r>
       <r>    4.1402    0.0000 </r>
       <r>    5.5808    0.0000 </r>
       <r>    5.6166    0.0000 </r>
      </set>
      <set comment="kpoint 13">
       <r>  -17.0740    1.0000 </r>
       <r>  -16.8200    1.0000 </r>
       <r>   -9.8148    1.0000 </r>
       <r>   -8.8897    1.0000 </r>
       <r>   -8.0431    1.0000 </r>
       <r>   -7.0034    1.0000 </r>
       <r>   -5.6694    1.0000 </r>
       <r>   -5.1194    1.0000 </r>
       <r>   -4.0396    1.0000 </r>
       <r>   -0.6448    0.0000 </r>
       <r>   -0.0383    0.0000 </r>
       <r>    1.3371    0.0000 </r>
       <r>    1.4699    0.0000 </r>
       <r>    3.6988    0.0000 </r>
       <r>    5.8733    0.0000 </r>
       <r>    6.0156    0.0000 </r>
      </set>
      <set comment="kpoint 14">
       <r>  -18.1111    1.0000 </r>
       <r>  -17.3052    1.0000 </r>
       <r>   -8.9533    1.0000 </r>
       <r>   -7.7824    1.0000 </r>
       <r>   -7.3094    1.0000 </r>
       <r>   -6.8679    1.0000 </r>
       <r>   -5.6804    1.0000 </r>
       <r>   -4.7242    1.0000 </r>
       <r>   -4.3306    1.0000 </r>
       <r>   -0.9200   -0.0000 </r>
       <r>   -0.3825    0.0000 </r>
       <r>   -0.1307    0.0000 </r>
       <r>    1.4075    0.0000 </r>
       <r>    3.9281    0.0000 </r>
       <r>    4.0533    0.0000 </r>
       <r>    4.6083    0.0000 </r>
      </set>
      <set comment="kpoint 15">
       <r>  -17.6781    1.0000 </r>
       <r>  -17.0941    1.0000 </r>
       <r>   -9.0909    1.0000 </r>
       <r>   -8.0127    1.0000 </r>
       <r>   -7.7594    1.0000 </r>
       <r>   -7.1068    1.0000 </r>
       <r>   -5.8362    1.0000 </r>
       <r>   -4.9974    1.0000 </r>
       <r>   -4.3780    1.0000 </r>
       <r>   -0.8908   -0.0000 </r>
       <r>   -0.3300    0.0000 </r>
       <r>    0.1755    0.0000 </r>
       <r>    1.7038    0.0000 </r>
       <r>    4.5971    0.0000 </r>
       <r>    4.7725    0.0000 </r>
       <r>    5.3704    0.0000 </r>
      </set>
      <set comment="kpoint 16">
       <r>  -17.2774    1.0000 </r>
       <r>  -16.9006    1.0000 </r>
       <r>   -9.3535    1.0000 </r>
       <r>   -8.6549    1.0000 </r>
       <r>   -7.7817    1.0000 </r>
       <r>   -7.1002    1.0000 </r>
       <r>   -5.9977    1.0000 </r>
       <r>   -5.3724    1.0000 </r>
       <r>   -4.1630    1.0000 </r>
       <r>   -0.6999    0.0000 </r>
       <r>   -0.1995    0.0000 </r>
       <r>    0.5566    0.0000 </r>
       <r>    1.8044    0.0000 </r>
       <r>    4.7516    0.0000 </r>
       <r>    5.5854    0.0000 </r>
       <r>    5.6701    0.0000 </r>
      </set>
      <set comment="kpoint 17">
       <r>  -17.0293    1.0000 </r>
       <r>  -16.7821    1.0000 </r>
       <r>   -9.5199    1.0000 </r>
       <r>   -9.0157    1.0000 </r>
       <r>   -7.9330    1.0000 </r>
       <r>   -7.0288    1.0000 </r>
       <r>   -6.0059    1.0000 </r>
       <r>   -5.6505    1.0000 </r>
       <r>   -3.8954    1.0000 </r>
       <r>   -0.7423   -0.0000 </r>
       <r>    0.1127    0.0000 </r>
       <r>    0.8283    0.0000 </r>
       <r>    1.7726    0.0000 </r>
       <r>    4.0559    0.0000 </r>
       <r>    6.3609    0.0000 </r>
       <r>    6.4066    0.0000 </r>
      </set>
      <set comment="kpoint 18">
       <r>  -17.3001    1.0000 </r>
       <r>  -16.9053    1.0000 </r>
       <r>   -9.1857    1.0000 </r>
       <r>   -8.6252    1.0000 </r>
       <r>   -7.6083    1.0000 </r>
       <r>   -7.1790    1.0000 </r>
       <r>   -6.4493    1.0000 </r>
       <r>   -5.2622    1.0000 </r>
       <r>   -4.1772    1.0000 </r>
       <r>   -0.7329   -0.0000 </r>
       <r>   -0.1890    0.0000 </r>
       <r>    0.3194    0.0000 </r>
       <r>    1.9218    0.0000 </r>
       <r>    5.0890    0.0000 </r>
       <r>    5.5406    0.0000 </r>
       <r>    5.7201    0.0000 </r>
      </set>
      <set comment="kpoint 19">
       <r>  -17.0090    1.0000 </r>
       <r>  -16.7577    1.0000 </r>
       <r>   -9.1765    1.0000 </r>
       <r>   -9.1043    1.0000 </r>
       <r>   -7.7013    1.0000 </r>
       <r>   -7.0340    1.0000 </r>
       <r>   -6.8615    1.0000 </r>
       <r>   -5.6267    1.0000 </r>
       <r>   -3.8493    1.0000 </r>
       <r>   -0.8721   -0.0000 </r>
       <r>    0.2345    0.0000 </r>
       <r>    0.4460    0.0000 </r>
       <r>    2.0599    0.0000 </r>
       <r>    4.6300    0.0000 </r>
       <r>    5.9271    0.0000 </r>
       <r>    6.3416    0.0000 </r>
      </set>
      <set comment="kpoint 20">
       <r>  -16.8985    1.0000 </r>
       <r>  -16.7011    1.0000 </r>
       <r>   -9.2798    1.0000 </r>
       <r>   -9.1269    1.0000 </r>
       <r>   -7.8785    1.0000 </r>
       <r>   -6.9349    1.0000 </r>
       <r>   -6.9201    1.0000 </r>
       <r>   -5.8212    1.0000 </r>
       <r>   -3.6468    1.0094 </r>
       <r>   -1.0440   -0.0000 </r>
       <r>    0.4887    0.0000 </r>
       <r>    0.5069    0.0000 </r>
       <r>    2.1122    0.0000 </r>
       <r>    4.2684    0.0000 </r>
       <r>    5.9583    0.0000 </r>
       <r>    6.8188    0.0000 </r>
      </set>
      <set comment="kpoint 21">
       <r>  -16.8521    1.0000 </r>
       <r>  -16.6701    1.0000 </r>
       <r>   -9.3838    1.0000 </r>
       <r>   -8.8009    1.0000 </r>
       <r>   -7.8320    1.0000 </r>
       <r>   -7.4852    1.0000 </r>
       <r>   -6.8316    1.0000 </r>
       <r>   -5.9267    1.0000 </r>
       <r>   -3.5211    0.9575 </r>
       <r>   -1.2236   -0.0000 </r>
       <r>    0.3477    0.0000 </r>
       <r>    0.6810    0.0000 </r>
       <r>    2.2749    0.0000 </r>
       <r>    4.5955    0.0000 </r>
       <r>    5.3131    0.0000 </r>
       <r>    6.9548    0.0000 </r>
      </set>
      <set comment="kpoint 22">
       <r>  -19.0775    1.0000 </r>
       <r>  -17.7792    1.0000 </r>
       <r>   -9.7469    1.0000 </r>
       <r>   -6.4101    1.0000 </r>
       <r>   -6.4101    1.0000 </r>
       <r>   -5.5382    1.0000 </r>
       <r>   -5.0855    1.0000 </r>
       <r>   -5.0856    1.0000 </r>
       <r>   -3.5427    0.9515 </r>
       <r>    0.0387    0.0000 </r>
       <r>    0.0383    0.0000 </r>
       <r>    0.2391    0.0000 </r>
       <r>    0.2388    0.0000 </r>
       <r>    2.5505    0.0000 </r>
       <r>    2.7017    0.0000 </r>
       <r>    3.9364    0.0000 </r>
      </set>
      <set comment="kpoint 23">
       <r>  -19.0678    1.0000 </r>
       <r>  -17.7745    1.0000 </r>
       <r>   -9.7349    1.0000 </r>
       <r>   -6.4337    1.0000 </r>
       <r>   -6.3995    1.0000 </r>
       <r>   -5.6044    1.0000 </r>
       <r>   -5.1019    1.0000 </r>
       <r>   -5.0371    1.0000 </r>
       <r>   -3.5487    0.9893 </r>
       <r>    0.0290    0.0000 </r>
       <r>    0.0492    0.0000 </r>
       <r>    0.2093    0.0000 </r>
       <r>    0.2242    0.0000 </r>
       <r>    2.5683    0.0000 </r>
       <r>    2.7142    0.0000 </r>
       <r>    4.0978    0.0000 </r>
      </set>
      <set comment="kpoint 24">
       <r>  -19.0389    1.0000 </r>
       <r>  -17.7602    1.0000 </r>
       <r>   -9.6995    1.0000 </r>
       <r>   -6.5037    1.0000 </r>
       <r>   -6.3670    1.0000 </r>
       <r>   -5.7522    1.0000 </r>
       <r>   -5.1533    1.0000 </r>
       <r>   -4.9397    1.0000 </r>
       <r>   -3.5642    1.0218 </r>
       <r>   -0.0196    0.0000 </r>
       <r>    0.1197    0.0000 </r>
       <r>    0.1050    0.0000 </r>
       <r>    0.1884    0.0000 </r>
       <r>    2.6185    0.0000 </r>
       <r>    2.7512    0.0000 </r>
       <r>    4.4632    0.0000 </r>
      </set>
      <set comment="kpoint 25">
       <r>  -18.9912    1.0000 </r>
       <r>  -17.7367    1.0000 </r>
       <r>   -9.6417    1.0000 </r>
       <r>   -6.6150    1.0000 </r>
       <r>   -6.3136    1.0000 </r>
       <r>   -5.9328    1.0000 </r>
       <r>   -5.2343    1.0000 </r>
       <r>   -4.8472    1.0000 </r>
       <r>   -3.5928    1.0354 </r>
       <r>   -0.0835    0.0000 </r>
       <r>   -0.0114    0.0000 </r>
       <r>    0.1316    0.0000 </r>
       <r>    0.1916    0.0000 </r>
       <r>    2.8085    0.0000 </r>
       <r>    2.6990    0.0000 </r>
       <r>    4.8911    0.0000 </r>
      </set>
      <set comment="kpoint 26">
       <r>  -18.9252    1.0000 </r>
       <r>  -17.7042    1.0000 </r>
       <r>   -9.5639    1.0000 </r>
       <r>   -6.7605    1.0000 </r>
       <r>   -6.2404    1.0000 </r>
       <r>   -6.1289    1.0000 </r>
       <r>   -5.3401    1.0000 </r>
       <r>   -4.7804    1.0000 </r>
       <r>   -3.6379    1.0168 </r>
       <r>   -0.1634    0.0000 </r>
       <r>   -0.1435    0.0000 </r>
       <r>    0.0571    0.0000 </r>
       <r>    0.3019    0.0000 </r>
       <r>    2.9005    0.0000 </r>
       <r>    2.7905    0.0000 </r>
       <r>    5.2534    0.0000 </r>
      </set>
      <set comment="kpoint 27">
       <r>  -18.8418    1.0000 </r>
       <r>  -17.6632    1.0000 </r>
       <r>   -9.4695    1.0000 </r>
       <r>   -6.9315    1.0000 </r>
       <r>   -6.3339    1.0000 </r>
       <r>   -6.1488    1.0000 </r>
       <r>   -5.4649    1.0000 </r>
       <r>   -4.7488    1.0000 </r>
       <r>   -3.7035    1.0017 </r>
       <r>   -0.3170    0.0000 </r>
       <r>   -0.1828    0.0000 </r>
       <r>   -0.0306    0.0000 </r>
       <r>    0.4298    0.0000 </r>
       <r>    3.0108    0.0000 </r>
       <r>    2.9067    0.0000 </r>
       <r>    5.6451    0.0000 </r>
      </set>
      <set comment="kpoint 28">
       <r>  -18.7423    1.0000 </r>
       <r>  -17.6143    1.0000 </r>
       <r>   -9.3637    1.0000 </r>
       <r>   -7.1184    1.0000 </r>
       <r>   -6.5449    1.0000 </r>
       <r>   -6.0408    1.0000 </r>
       <r>   -5.6031    1.0000 </r>
       <r>   -4.7555    1.0000 </r>
       <r>   -3.7923    1.0000 </r>
       <r>   -0.4559    0.0000 </r>
       <r>   -0.1884    0.0000 </r>
       <r>   -0.1262    0.0000 </r>
       <r>    0.5683    0.0000 </r>
       <r>    3.1437    0.0000 </r>
       <r>    3.0417    0.0000 </r>
       <r>    6.0469    0.0000 </r>
      </set>
      <set comment="kpoint 29">
       <r>  -18.6279    1.0000 </r>
       <r>  -17.5583    1.0000 </r>
       <r>   -9.2540    1.0000 </r>
       <r>   -7.3103    1.0000 </r>
       <r>   -6.7604    1.0000 </r>
       <r>   -5.9186    1.0000 </r>
       <r>   -5.7491    1.0000 </r>
       <r>   -4.7986    1.0000 </r>
       <r>   -3.9047    1.0000 </r>
       <r>   -0.5675    0.0000 </r>
       <r>   -0.2247    0.0000 </r>
       <r>   -0.1537    0.0000 </r>
       <r>    0.7110    0.0000 </r>
       <r>    3.2983    0.0000 </r>
       <r>    3.1912    0.0000 </r>
       <r>    6.2872    0.0000 </r>
      </set>
      <set comment="kpoint 30">
       <r>  -18.5004    1.0000 </r>
       <r>  -17.4961    1.0000 </r>
       <r>   -9.1518    1.0000 </r>
       <r>   -7.4947    1.0000 </r>
       <r>   -6.9791    1.0000 </r>
       <r>   -5.8983    1.0000 </r>
       <r>   -5.7853    1.0000 </r>
       <r>   -4.8715    1.0000 </r>
       <r>   -4.0365    1.0000 </r>
       <r>   -0.6446    0.0000 </r>
       <r>   -0.3213    0.0000 </r>
       <r>   -0.0785    0.0000 </r>
       <r>    0.8522    0.0000 </r>
       <r>    3.4752    0.0000 </r>
       <r>    3.3616    0.0000 </r>
       <r>    6.6047    0.0000 </r>
      </set>
      <set comment="kpoint 31">
       <r>  -18.3619    1.0000 </r>
       <r>  -17.4288    1.0000 </r>
       <r>   -9.0729    1.0000 </r>
       <r>   -7.6570    1.0000 </r>
       <r>   -7.1997    1.0000 </r>
       <r>   -6.0466    1.0000 </r>
       <r>   -5.6440    1.0000 </r>
       <r>   -4.9651    1.0000 </r>
       <r>   -4.1788    1.0000 </r>
       <r>   -0.6849    0.0000 </r>
       <r>   -0.4118    0.0000 </r>
       <r>    0.0322    0.0000 </r>
       <r>    0.9872    0.0000 </r>
       <r>    3.6724    0.0000 </r>
       <r>    3.5548    0.0000 </r>
       <r>    6.8966    0.0000 </r>
      </set>
      <set comment="kpoint 32">
       <r>  -18.2149    1.0000 </r>
       <r>  -17.3577    1.0000 </r>
       <r>   -9.0369    1.0000 </r>
       <r>   -7.7811    1.0000 </r>
       <r>   -7.4203    1.0000 </r>
       <r>   -6.1906    1.0000 </r>
       <r>   -5.4986    1.0000 </r>
       <r>   -5.0697    1.0000 </r>
       <r>   -4.3186    1.0000 </r>
       <r>   -0.6905    0.0000 </r>
       <r>   -0.4926    0.0000 </r>
       <r>    0.1705    0.0000 </r>
       <r>    1.1125    0.0000 </r>
       <r>    3.8876    0.0000 </r>
       <r>    3.7636    0.0000 </r>
       <r>    6.9487    0.0000 </r>
      </set>
      <set comment="kpoint 33">
       <r>  -18.0622    1.0000 </r>
       <r>  -17.2844    1.0000 </r>
       <r>   -9.0587    1.0000 </r>
       <r>   -7.8572    1.0000 </r>
       <r>   -7.6384    1.0000 </r>
       <r>   -6.3274    1.0000 </r>
       <r>   -5.3532    1.0000 </r>
       <r>   -5.1770    1.0000 </r>
       <r>   -4.4408    1.0000 </r>
       <r>   -0.6659    0.0000 </r>
       <r>   -0.5608    0.0000 </r>
       <r>    0.3270    0.0000 </r>
       <r>    1.2257    0.0000 </r>
       <r>    4.1183    0.0000 </r>
       <r>    3.9828    0.0000 </r>
       <r>    6.8461    0.0000 </r>
      </set>
      <set comment="kpoint 34">
       <r>  -17.9072    1.0000 </r>
       <r>  -17.2105    1.0000 </r>
       <r>   -9.1369    1.0000 </r>
       <r>   -7.8921    1.0000 </r>
       <r>   -7.8504    1.0000 </r>
       <r>   -6.4548    1.0000 </r>
       <r>   -5.2801    1.0000 </r>
       <r>   -5.2118    1.0000 </r>
       <r>   -4.5312    1.0000 </r>
       <r>   -0.6168    0.0000 </r>
       <r>   -0.6143    0.0000 </r>
       <r>    0.4923    0.0000 </r>
       <r>    1.3254    0.0000 </r>
       <r>    4.3580    0.0000 </r>
       <r>    4.2189    0.0000 </r>
       <r>    6.2589    0.0000 </r>
      </set>
      <set comment="kpoint 35">
       <r>  -17.7535    1.0000 </r>
       <r>  -17.1380    1.0000 </r>
       <r>   -9.2539    1.0000 </r>
       <r>   -8.0524    1.0000 </r>
       <r>   -7.9071    1.0000 </r>
       <r>   -6.5708    1.0000 </r>
       <r>   -5.3745    1.0000 </r>
       <r>   -5.0787    1.0000 </r>
       <r>   -4.5793    1.0000 </r>
       <r>   -0.6497    0.0000 </r>
       <r>   -0.5520    0.0000 </r>
       <r>    0.6571    0.0000 </r>
       <r>    1.4112    0.0000 </r>
       <r>    4.4733    0.0000 </r>
       <r>    4.6091    0.0000 </r>
       <r>    5.9038    0.0000 </r>
      </set>
      <set comment="kpoint 36">
       <r>  -17.6056    1.0000 </r>
       <r>  -17.0688    1.0000 </r>
       <r>   -9.3890    1.0000 </r>
       <r>   -8.2400    1.0000 </r>
       <r>   -7.9220    1.0000 </r>
       <r>   -6.6741    1.0000 </r>
       <r>   -5.4576    1.0000 </r>
       <r>   -4.9575    1.0000 </r>
       <r>   -4.5817    1.0000 </r>
       <r>   -0.6722    0.0000 </r>
       <r>   -0.4722    0.0000 </r>
       <r>    0.8131    0.0000 </r>
       <r>    1.4831    0.0000 </r>
       <r>    4.6192    0.0000 </r>
       <r>    4.8554    0.0000 </r>
       <r>    5.3717    0.0000 </r>
      </set>
      <set comment="kpoint 37">
       <r>  -17.4681    1.0000 </r>
       <r>  -17.0052    1.0000 </r>
       <r>   -9.5255    1.0000 </r>
       <r>   -8.4085    1.0000 </r>
       <r>   -7.9460    1.0000 </r>
       <r>   -6.7633    1.0000 </r>
       <r>   -5.5278    1.0000 </r>
       <r>   -4.8514    1.0000 </r>
       <r>   -4.5434    1.0000 </r>
       <r>   -0.6806    0.0000 </r>
       <r>   -0.3858    0.0000 </r>
       <r>    0.9532    0.0000 </r>
       <r>    1.5418    0.0000 </r>
       <r>    4.5546    0.0000 </r>
       <r>    5.0905    0.0000 </r>
       <r>    5.4115    0.0000 </r>
      </set>
      <set comment="kpoint 38">
       <r>  -17.3459    1.0000 </r>
       <r>  -16.9494    1.0000 </r>
       <r>   -9.6518    1.0000 </r>
       <r>   -8.5536    1.0000 </r>
       <r>   -7.9788    1.0000 </r>
       <r>   -6.8375    1.0000 </r>
       <r>   -5.5847    1.0000 </r>
       <r>   -4.7627    1.0000 </r>
       <r>   -4.4772    1.0000 </r>
       <r>   -0.6785    0.0000 </r>
       <r>   -0.2983    0.0000 </r>
       <r>    1.0716    0.0000 </r>
       <r>    1.5881    0.0000 </r>
       <r>    4.3006    0.0000 </r>
       <r>    5.3085    0.0000 </r>
       <r>    5.7430    0.0000 </r>
      </set>
      <set comment="kpoint 39">
       <r>  -17.2442    1.0000 </r>
       <r>  -16.9034    1.0000 </r>
       <r>   -9.7591    1.0000 </r>
       <r>   -8.6711    1.0000 </r>
       <r>   -8.0147    1.0000 </r>
       <r>   -6.8959    1.0000 </r>
       <r>   -5.6284    1.0000 </r>
       <r>   -4.6930    1.0000 </r>
       <r>   -4.3999    1.0000 </r>
       <r>   -0.6699    0.0000 </r>
       <r>   -0.2164    0.0000 </r>
       <r>    1.1648    0.0000 </r>
       <r>    1.6229    0.0000 </r>
       <r>    4.0272    0.0000 </r>
       <r>    5.5621    0.0000 </r>
       <r>    5.9778    0.0000 </r>
      </set>
      <set comment="kpoint 40">
       <r>  -17.1675    1.0000 </r>
       <r>  -16.8690    1.0000 </r>
       <r>   -9.8409    1.0000 </r>
       <r>   -8.7577    1.0000 </r>
       <r>   -8.0465    1.0000 </r>
       <r>   -6.9380    1.0000 </r>
       <r>   -5.6593    1.0000 </r>
       <r>   -4.6430    1.0000 </r>
       <r>   -4.3291    1.0000 </r>
       <r>   -0.6595    0.0000 </r>
       <r>   -0.1480    0.0000 </r>
       <r>    1.2313    0.0000 </r>
       <r>    1.6470    0.0000 </r>
       <r>    3.8010    0.0000 </r>
       <r>    5.8191    0.0000 </r>
       <r>    6.6393    0.0000 </r>
      </set>
      <set comment="kpoint 41">
       <r>  -17.1197    1.0000 </r>
       <r>  -16.8478    1.0000 </r>
       <r>   -9.8920    1.0000 </r>
       <r>   -8.8107    1.0000 </r>
       <r>   -8.0681    1.0000 </r>
       <r>   -6.9634    1.0000 </r>
       <r>   -5.6776    1.0000 </r>
       <r>   -4.6129    1.0000 </r>
       <r>   -4.2798    1.0000 </r>
       <r>   -0.6513    0.0000 </r>
       <r>   -0.1019    0.0000 </r>
       <r>    1.2709    0.0000 </r>
       <r>    1.6612    0.0000 </r>
       <r>    3.6532    0.0000 </r>
       <r>    6.0935    0.0000 </r>
       <r>    6.9035    0.0000 </r>
      </set>
      <set comment="kpoint 42">
       <r>  -17.1035    1.0000 </r>
       <r>  -16.8406    1.0000 </r>
       <r>   -9.9094    1.0000 </r>
       <r>   -8.8286    1.0000 </r>
       <r>   -8.0757    1.0000 </r>
       <r>   -6.9719    1.0000 </r>
       <r>   -5.6837    1.0000 </r>
       <r>   -4.6029    1.0000 </r>
       <r>   -4.2622    1.0000 </r>
       <r>   -0.6482    0.0000 </r>
       <r>   -0.0855    0.0000 </r>
       <r>    1.2840    0.0000 </r>
       <r>    1.6658    0.0000 </r>
       <r>    3.6017    0.0000 </r>
       <r>    6.2673    0.0000 </r>
       <r>    7.5788    0.0000 </r>
      </set>
      <set comment="kpoint 43">
       <r>  -17.1035    1.0000 </r>
       <r>  -16.8406    1.0000 </r>
       <r>   -9.9094    1.0000 </r>
       <r>   -8.8286    1.0000 </r>
       <r>   -8.0757    1.0000 </r>
       <r>   -6.9719    1.0000 </r>
       <r>   -5.6837    1.0000 </r>
       <r>   -4.6029    1.0000 </r>
       <r>   -4.2622    1.0000 </r>
       <r>   -0.6482    0.0000 </r>
       <r>   -0.0855    0.0000 </r>
       <r>    1.2840    0.0000 </r>
       <r>    1.6658    0.0000 </r>
       <r>    3.6017    0.0000 </r>
       <r>    6.2673    0.0000 </r>
       <r>    7.5788    0.0000 </r>
      </set>
      <set comment="kpoint 44">
       <r>  -17.1021    1.0000 </r>
       <r>  -16.8396    1.0000 </r>
       <r>   -9.9049    1.0000 </r>
       <r>   -8.8315    1.0000 </r>
       <r>   -8.0742    1.0000 </r>
       <r>   -6.9739    1.0000 </r>
       <r>   -5.6827    1.0000 </r>
       <r>   -4.6423    1.0000 </r>
       <r>   -4.2375    1.0000 </r>
       <r>   -0.6472    0.0000 </r>
       <r>   -0.0838    0.0000 </r>
       <r>    1.2898    0.0000 </r>
       <r>    1.6515    0.0000 </r>
       <r>    3.6066    0.0000 </r>
       <r>    6.2785    0.0000 </r>
       <r>    7.6433    0.0000 </r>
      </set>
      <set comment="kpoint 45">
       <r>  -17.0978    1.0000 </r>
       <r>  -16.8366    1.0000 </r>
       <r>   -9.8915    1.0000 </r>
       <r>   -8.8401    1.0000 </r>
       <r>   -8.0694    1.0000 </r>
       <r>   -6.9794    1.0000 </r>
       <r>   -5.6798    1.0000 </r>
       <r>   -4.7391    1.0000 </r>
       <r>   -4.1841    1.0000 </r>
       <r>   -0.6447    0.0000 </r>
       <r>   -0.0785    0.0000 </r>
       <r>    1.3068    0.0000 </r>
       <r>    1.6104    0.0000 </r>
       <r>    3.6210    0.0000 </r>
       <r>    6.3009    0.0000 </r>
       <r>    7.4858    0.0000 </r>
      </set>
      <set comment="kpoint 46">
       <r>  -17.0908    1.0000 </r>
       <r>  -16.8317    1.0000 </r>
       <r>   -9.8692    1.0000 </r>
       <r>   -8.8544    1.0000 </r>
       <r>   -8.0616    1.0000 </r>
       <r>   -6.9877    1.0000 </r>
       <r>   -5.6757    1.0000 </r>
       <r>   -4.8683    1.0000 </r>
       <r>   -4.1257    1.0000 </r>
       <r>   -0.6423    0.0000 </r>
       <r>   -0.0685    0.0000 </r>
       <r>    1.3321    0.0000 </r>
       <r>    1.5485    0.0000 </r>
       <r>    3.6444    0.0000 </r>
       <r>    6.3305    0.0000 </r>
       <r>    7.5733    0.0000 </r>
      </set>
      <set comment="kpoint 47">
       <r>  -17.0812    1.0000 </r>
       <r>  -16.8250    1.0000 </r>
       <r>   -9.8382    1.0000 </r>
       <r>   -8.8745    1.0000 </r>
       <r>   -8.0509    1.0000 </r>
       <r>   -6.9974    1.0000 </r>
       <r>   -5.6715    1.0000 </r>
       <r>   -5.0186    1.0000 </r>
       <r>   -4.0708    1.0000 </r>
       <r>   -0.6423    0.0000 </r>
       <r>   -0.0522    0.0000 </r>
       <r>    1.3517    0.0000 </r>
       <r>    1.4845    0.0000 </r>
       <r>    3.6761    0.0000 </r>
       <r>    6.3643    0.0000 </r>
       <r>    7.6280    0.0000 </r>
      </set>
      <set comment="kpoint 48">
       <r>  -17.0690    1.0000 </r>
       <r>  -16.8166    1.0000 </r>
       <r>   -9.7985    1.0000 </r>
       <r>   -8.9003    1.0000 </r>
       <r>   -8.0377    1.0000 </r>
       <r>   -7.0069    1.0000 </r>
       <r>   -5.6684    1.0000 </r>
       <r>   -5.1852    1.0000 </r>
       <r>   -4.0211    1.0000 </r>
       <r>   -0.6475    0.0000 </r>
       <r>   -0.0279    0.0000 </r>
       <r>    1.3118    0.0000 </r>
       <r>    1.4768    0.0000 </r>
       <r>    3.7150    0.0000 </r>
       <r>    6.4001    0.0000 </r>
       <r>    7.6272    0.0000 </r>
      </set>
      <set comment="kpoint 49">
       <r>  -17.0545    1.0000 </r>
       <r>  -16.8066    1.0000 </r>
       <r>   -9.7506    1.0000 </r>
       <r>   -8.9314    1.0000 </r>
       <r>   -8.0222    1.0000 </r>
       <r>   -7.0148    1.0000 </r>
       <r>   -5.6674    1.0000 </r>
       <r>   -5.3646    1.0000 </r>
       <r>   -3.9763    1.0000 </r>
       <r>   -0.6601    0.0000 </r>
       <r>    0.0055    0.0000 </r>
       <r>    1.2176    0.0000 </r>
       <r>    1.5244    0.0000 </r>
       <r>    3.7604    0.0000 </r>
       <r>    6.4357    0.0000 </r>
       <r>    7.5602    0.0000 </r>
      </set>
      <set comment="kpoint 50">
       <r>  -17.0381    1.0000 </r>
       <r>  -16.7952    1.0000 </r>
       <r>   -9.6945    1.0000 </r>
       <r>   -8.9675    1.0000 </r>
       <r>   -8.0047    1.0000 </r>
       <r>   -7.0197    1.0000 </r>
       <r>   -5.6699    1.0000 </r>
       <r>   -5.5544    1.0000 </r>
       <r>   -3.9350    1.0000 </r>
       <r>   -0.6819    0.0000 </r>
       <r>    0.0486    0.0000 </r>
       <r>    1.1098    0.0000 </r>
       <r>    1.5897    0.0000 </r>
       <r>    3.8112    0.0000 </r>
       <r>    6.4754    0.0000 </r>
       <r>    7.4009    0.0000 </r>
      </set>
      <set comment="kpoint 51">
       <r>  -17.0198    1.0000 </r>
       <r>  -16.7827    1.0000 </r>
       <r>   -9.6307    1.0000 </r>
       <r>   -9.0081    1.0000 </r>
       <r>   -7.9859    1.0000 </r>
       <r>   -7.0203    1.0000 </r>
       <r>   -5.7520    1.0000 </r>
       <r>   -5.6767    1.0000 </r>
       <r>   -3.8957    1.0000 </r>
       <r>   -0.7134    0.0000 </r>
       <r>    0.1010    0.0000 </r>
       <r>    1.0000    0.0000 </r>
       <r>    1.6634    0.0000 </r>
       <r>    3.8669    0.0000 </r>
       <r>    6.5165    0.0000 </r>
       <r>    7.2382    0.0000 </r>
      </set>
      <set comment="kpoint 52">
       <r>  -17.0002    1.0000 </r>
       <r>  -16.7692    1.0000 </r>
       <r>   -9.5595    1.0000 </r>
       <r>   -9.0521    1.0000 </r>
       <r>   -7.9660    1.0000 </r>
       <r>   -7.0159    1.0000 </r>
       <r>   -5.9551    1.0000 </r>
       <r>   -5.6885    1.0000 </r>
       <r>   -3.8569    1.0000 </r>
       <r>   -0.7542   -0.0000 </r>
       <r>    0.1614    0.0000 </r>
       <r>    0.8930    0.0000 </r>
       <r>    1.7419    0.0000 </r>
       <r>    3.9270    0.0000 </r>
       <r>    6.5605    0.0000 </r>
       <r>    7.0381    0.0000 </r>
      </set>
      <set comment="kpoint 53">
       <r>  -16.9795    1.0000 </r>
       <r>  -16.7552    1.0000 </r>
       <r>   -9.4813    1.0000 </r>
       <r>   -9.0988    1.0000 </r>
       <r>   -7.9458    1.0000 </r>
       <r>   -7.0061    1.0000 </r>
       <r>   -6.1612    1.0000 </r>
       <r>   -5.7058    1.0000 </r>
       <r>   -3.8172    1.0000 </r>
       <r>   -0.8035   -0.0000 </r>
       <r>    0.2280    0.0000 </r>
       <r>    0.7919    0.0000 </r>
       <r>    1.8226    0.0000 </r>
       <r>    3.9911    0.0000 </r>
       <r>    6.6076    0.0000 </r>
       <r>    6.8145    0.0000 </r>
      </set>
      <set comment="kpoint 54">
       <r>  -16.9582    1.0000 </r>
       <r>  -16.7408    1.0000 </r>
       <r>   -9.3967    1.0000 </r>
       <r>   -9.1468    1.0000 </r>
       <r>   -7.9258    1.0000 </r>
       <r>   -6.9907    1.0000 </r>
       <r>   -6.3679    1.0000 </r>
       <r>   -5.7287    1.0000 </r>
       <r>   -3.7759    1.0000 </r>
       <r>   -0.8600   -0.0000 </r>
       <r>    0.2990    0.0000 </r>
       <r>    0.6988    0.0000 </r>
       <r>    1.9030    0.0000 </r>
       <r>    4.0589    0.0000 </r>
       <r>    6.5870    0.0000 </r>
       <r>    6.6583    0.0000 </r>
      </set>
      <set comment="kpoint 55">
       <r>  -16.9367    1.0000 </r>
       <r>  -16.7264    1.0000 </r>
       <r>   -9.3063    1.0000 </r>
       <r>   -9.1950    1.0000 </r>
       <r>   -7.9068    1.0000 </r>
       <r>   -6.9700    1.0000 </r>
       <r>   -6.5726    1.0000 </r>
       <r>   -5.7570    1.0000 </r>
       <r>   -3.7324    1.0003 </r>
       <r>   -0.9219   -0.0000 </r>
       <r>    0.3724    0.0000 </r>
       <r>    0.6152    0.0000 </r>
       <r>    1.9812    0.0000 </r>
       <r>    4.1301    0.0000 </r>
       <r>    6.3610    0.0000 </r>
       <r>    6.7123    0.0000 </r>
      </set>
      <set comment="kpoint 56">
       <r>  -16.9157    1.0000 </r>
       <r>  -16.7124    1.0000 </r>
       <r>   -9.2420    1.0000 </r>
       <r>   -9.2108    1.0000 </r>
       <r>   -7.8899    1.0000 </r>
       <r>   -6.9446    1.0000 </r>
       <r>   -6.7724    1.0000 </r>
       <r>   -5.7901    1.0000 </r>
       <r>   -3.6867    1.0023 </r>
       <r>   -0.9874   -0.0000 </r>
       <r>    0.4460    0.0000 </r>
       <r>    0.5421    0.0000 </r>
       <r>    2.0548    0.0000 </r>
       <r>    4.2042    0.0000 </r>
       <r>    6.1398    0.0000 </r>
       <r>    6.7692    0.0000 </r>
      </set>
      <set comment="kpoint 57">
       <r>  -16.8954    1.0000 </r>
       <r>  -16.6992    1.0000 </r>
       <r>   -9.2864    1.0000 </r>
       <r>   -9.1114    1.0000 </r>
       <r>   -7.8768    1.0000 </r>
       <r>   -6.9636    1.0000 </r>
       <r>   -6.9155    1.0000 </r>
       <r>   -5.8271    1.0000 </r>
       <r>   -3.6396    1.0119 </r>
       <r>   -1.0543   -0.0000 </r>
       <r>    0.4799    0.0000 </r>
       <r>    0.5177    0.0000 </r>
       <r>    2.1221    0.0000 </r>
       <r>    4.2806    0.0000 </r>
       <r>    5.9265    0.0000 </r>
       <r>    6.8283    0.0000 </r>
      </set>
      <set comment="kpoint 58">
       <r>  -16.8767    1.0000 </r>
       <r>  -16.6870    1.0000 </r>
       <r>   -9.3270    1.0000 </r>
       <r>   -9.0094    1.0000 </r>
       <r>   -7.8699    1.0000 </r>
       <r>   -7.1411    1.0000 </r>
       <r>   -6.8838    1.0000 </r>
       <r>   -5.8663    1.0000 </r>
       <r>   -3.5922    1.0318 </r>
       <r>   -1.1198   -0.0000 </r>
       <r>    0.4288    0.0000 </r>
       <r>    0.5854    0.0000 </r>
       <r>    2.1812    0.0000 </r>
       <r>    4.3581    0.0000 </r>
       <r>    5.7260    0.0000 </r>
       <r>    6.8882    0.0000 </r>
      </set>
      <set comment="kpoint 59">
       <r>  -16.8600    1.0000 </r>
       <r>  -16.6762    1.0000 </r>
       <r>   -9.3625    1.0000 </r>
       <r>   -8.9069    1.0000 </r>
       <r>   -7.8739    1.0000 </r>
       <r>   -7.2974    1.0000 </r>
       <r>   -6.8515    1.0000 </r>
       <r>   -5.9059    1.0000 </r>
       <r>   -3.5466    1.0185 </r>
       <r>   -1.1811   -0.0000 </r>
       <r>    0.3887    0.0000 </r>
       <r>    0.6465    0.0000 </r>
       <r>    2.2309    0.0000 </r>
       <r>    4.4351    0.0000 </r>
       <r>    5.5424    0.0000 </r>
       <r>    6.9470    0.0000 </r>
      </set>
      <set comment="kpoint 60">
       <r>  -16.8459    1.0000 </r>
       <r>  -16.6673    1.0000 </r>
       <r>   -9.3918    1.0000 </r>
       <r>   -8.8077    1.0000 </r>
       <r>   -7.8957    1.0000 </r>
       <r>   -7.4211    1.0000 </r>
       <r>   -6.8208    1.0000 </r>
       <r>   -5.9430    1.0000 </r>
       <r>   -3.5055    0.8893 </r>
       <r>   -1.2347   -0.0000 </r>
       <r>    0.3591    0.0000 </r>
       <r>    0.6985    0.0000 </r>
       <r>    2.2701    0.0000 </r>
       <r>    4.5084    0.0000 </r>
       <r>    5.3817    0.0000 </r>
       <r>    7.0015    0.0000 </r>
      </set>
      <set comment="kpoint 61">
       <r>  -16.8351    1.0000 </r>
       <r>  -16.6605    1.0000 </r>
       <r>   -9.4137    1.0000 </r>
       <r>   -8.7185    1.0000 </r>
       <r>   -7.9380    1.0000 </r>
       <r>   -7.5017    1.0000 </r>
       <r>   -6.7949    1.0000 </r>
       <r>   -5.9743    1.0000 </r>
       <r>   -3.4722    0.6687 </r>
       <r>   -1.2769   -0.0000 </r>
       <r>    0.3392    0.0000 </r>
       <r>    0.7388    0.0000 </r>
       <r>    2.2981    0.0000 </r>
       <r>    4.5723    0.0000 </r>
       <r>    5.2523    0.0000 </r>
       <r>    7.0476    0.0000 </r>
      </set>
      <set comment="kpoint 62">
       <r>  -16.8282    1.0000 </r>
       <r>  -16.6563    1.0000 </r>
       <r>   -9.4275    1.0000 </r>
       <r>   -8.6518    1.0000 </r>
       <r>   -7.9863    1.0000 </r>
       <r>   -7.5408    1.0000 </r>
       <r>   -6.7770    1.0000 </r>
       <r>   -5.9957    1.0000 </r>
       <r>   -3.4501    0.4853 </r>
       <r>   -1.3042   -0.0000 </r>
       <r>    0.3281    0.0000 </r>
       <r>    0.7646    0.0000 </r>
       <r>    2.3147    0.0000 </r>
       <r>    4.6168    0.0000 </r>
       <r>    5.1668    0.0000 </r>
       <r>    7.0798    0.0000 </r>
      </set>
      <set comment="kpoint 63">
       <r>  -16.8257    1.0000 </r>
       <r>  -16.6548    1.0000 </r>
       <r>   -9.4323    1.0000 </r>
       <r>   -8.6260    1.0000 </r>
       <r>   -8.0088    1.0000 </r>
       <r>   -7.5510    1.0000 </r>
       <r>   -6.7704    1.0000 </r>
       <r>   -6.0036    1.0000 </r>
       <r>   -3.4422    0.4184 </r>
       <r>   -1.3138   -0.0000 </r>
       <r>    0.3247    0.0000 </r>
       <r>    0.7737    0.0000 </r>
       <r>    2.3201    0.0000 </r>
       <r>    4.6320    0.0000 </r>
       <r>    5.1376    0.0000 </r>
       <r>    7.0920    0.0000 </r>
      </set>
      <set comment="kpoint 64">
       <r>  -16.8257    1.0000 </r>
       <r>  -16.6548    1.0000 </r>
       <r>   -9.4323    1.0000 </r>
       <r>   -8.6260    1.0000 </r>
       <r>   -8.0088    1.0000 </r>
       <r>   -7.5510    1.0000 </r>
       <r>   -6.7704    1.0000 </r>
       <r>   -6.0036    1.0000 </r>
       <r>   -3.4422    0.4184 </r>
       <r>   -1.3138   -0.0000 </r>
       <r>    0.3247    0.0000 </r>
       <r>    0.7737    0.0000 </r>
       <r>    2.3201    0.0000 </r>
       <r>    4.6320    0.0000 </r>
       <r>    5.1376    0.0000 </r>
       <r>    7.0920    0.0000 </r>
      </set>
      <set comment="kpoint 65">
       <r>  -16.8365    1.0000 </r>
       <r>  -16.6612    1.0000 </r>
       <r>   -9.4121    1.0000 </r>
       <r>   -8.7145    1.0000 </r>
       <r>   -7.9201    1.0000 </r>
       <r>   -7.5228    1.0000 </r>
       <r>   -6.7975    1.0000 </r>
       <r>   -5.9703    1.0000 </r>
       <r>   -3.4759    0.6984 </r>
       <r>   -1.2747   -0.0000 </r>
       <r>    0.3355    0.0000 </r>
       <r>    0.7347    0.0000 </r>
       <r>    2.3001    0.0000 </r>
       <r>    4.6041    0.0000 </r>
       <r>    5.2242    0.0000 </r>
       <r>    7.0352    0.0000 </r>
      </set>
      <set comment="kpoint 66">
       <r>  -16.8714    1.0000 </r>
       <r>  -16.6810    1.0000 </r>
       <r>   -9.3493    1.0000 </r>
       <r>   -8.8773    1.0000 </r>
       <r>   -7.7582    1.0000 </r>
       <r>   -7.4360    1.0000 </r>
       <r>   -6.8682    1.0000 </r>
       <r>   -5.8781    1.0000 </r>
       <r>   -3.5724    1.0354 </r>
       <r>   -1.1667   -0.0000 </r>
       <r>    0.3597    0.0000 </r>
       <r>    0.6177    0.0000 </r>
       <r>    2.2469    0.0000 </r>
       <r>    4.6037    0.0000 </r>
       <r>    5.3992    0.0000 </r>
       <r>    6.8617    0.0000 </r>
      </set>
      <set comment="kpoint 67">
       <r>  -16.9330    1.0000 </r>
       <r>  -16.7149    1.0000 </r>
       <r>   -9.2421    1.0000 </r>
       <r>   -9.0241    1.0000 </r>
       <r>   -7.6476    1.0000 </r>
       <r>   -7.2597    1.0000 </r>
       <r>   -6.9584    1.0000 </r>
       <r>   -5.7481    1.0000 </r>
       <r>   -3.7118    1.0007 </r>
       <r>   -1.0196   -0.0000 </r>
       <r>    0.3835    0.0000 </r>
       <r>    0.4357    0.0000 </r>
       <r>    2.1726    0.0000 </r>
       <r>    4.6771    0.0000 </r>
       <r>    5.6034    0.0000 </r>
       <r>    6.6002    0.0000 </r>
      </set>
      <set comment="kpoint 68">
       <r>  -17.0221    1.0000 </r>
       <r>  -16.7626    1.0000 </r>
       <r>   -9.1280    1.0000 </r>
       <r>   -9.0906    1.0000 </r>
       <r>   -7.5992    1.0000 </r>
       <r>   -7.0475    1.0000 </r>
       <r>   -7.0174    1.0000 </r>
       <r>   -5.5985    1.0000 </r>
       <r>   -3.8689    1.0000 </r>
       <r>   -0.8717   -0.0000 </r>
       <r>    0.2168    0.0000 </r>
       <r>    0.3931    0.0000 </r>
       <r>    2.0902    0.0000 </r>
       <r>    4.8142    0.0000 </r>
       <r>    5.8065    0.0000 </r>
       <r>    6.2864    0.0000 </r>
      </set>
      <set comment="kpoint 69">
       <r>  -17.1377    1.0000 </r>
       <r>  -16.8227    1.0000 </r>
       <r>   -9.1824    1.0000 </r>
       <r>   -8.8967    1.0000 </r>
       <r>   -7.5869    1.0000 </r>
       <r>   -7.1222    1.0000 </r>
       <r>   -6.7536    1.0000 </r>
       <r>   -5.4415    1.0000 </r>
       <r>   -4.0226    1.0000 </r>
       <r>   -0.7620   -0.0000 </r>
       <r>   -0.0009    0.0000 </r>
       <r>    0.3769    0.0000 </r>
       <r>    2.0094    0.0000 </r>
       <r>    4.9810    0.0000 </r>
       <r>    5.9457    0.0000 </r>
       <r>    5.9732    0.0000 </r>
      </set>
      <set comment="kpoint 70">
       <r>  -17.2769    1.0000 </r>
       <r>  -16.8936    1.0000 </r>
       <r>   -9.1886    1.0000 </r>
       <r>   -8.6641    1.0000 </r>
       <r>   -7.6033    1.0000 </r>
       <r>   -7.1736    1.0000 </r>
       <r>   -6.4892    1.0000 </r>
       <r>   -5.2857    1.0000 </r>
       <r>   -4.1584    1.0000 </r>
       <r>   -0.7293   -0.0000 </r>
       <r>   -0.1700    0.0000 </r>
       <r>    0.3295    0.0000 </r>
       <r>    1.9333    0.0000 </r>
       <r>    5.1067    0.0000 </r>
       <r>    5.5951    0.0000 </r>
       <r>    6.1774    0.0000 </r>
      </set>
      <set comment="kpoint 71">
       <r>  -17.4352    1.0000 </r>
       <r>  -16.9729    1.0000 </r>
       <r>   -9.1535    1.0000 </r>
       <r>   -8.3983    1.0000 </r>
       <r>   -7.6457    1.0000 </r>
       <r>   -7.1953    1.0000 </r>
       <r>   -6.2365    1.0000 </r>
       <r>   -5.1374    1.0000 </r>
       <r>   -4.2687    1.0000 </r>
       <r>   -0.7862   -0.0000 </r>
       <r>   -0.2606    0.0000 </r>
       <r>    0.2527    0.0000 </r>
       <r>    1.8571    0.0000 </r>
       <r>    5.0845    0.0000 </r>
       <r>    5.2456    0.0000 </r>
       <r>    6.3611    0.0000 </r>
      </set>
      <set comment="kpoint 72">
       <r>  -17.6075    1.0000 </r>
       <r>  -17.0583    1.0000 </r>
       <r>   -9.0892    1.0000 </r>
       <r>   -8.1075    1.0000 </r>
       <r>   -7.7066    1.0000 </r>
       <r>   -7.1815    1.0000 </r>
       <r>   -6.0085    1.0000 </r>
       <r>   -5.0019    1.0000 </r>
       <r>   -4.3490    1.0000 </r>
       <r>   -0.8767   -0.0000 </r>
       <r>   -0.3046    0.0000 </r>
       <r>    0.1551    0.0000 </r>
       <r>    1.7705    0.0000 </r>
       <r>    4.9056    0.0000 </r>
       <r>    4.8048    0.0000 </r>
       <r>    6.6096    0.0000 </r>
      </set>
      <set comment="kpoint 73">
       <r>  -17.7881    1.0000 </r>
       <r>  -17.1471    1.0000 </r>
       <r>   -9.0153    1.0000 </r>
       <r>   -7.8039    1.0000 </r>
       <r>   -7.7680    1.0000 </r>
       <r>   -7.1246    1.0000 </r>
       <r>   -5.8243    1.0000 </r>
       <r>   -4.8833    1.0000 </r>
       <r>   -4.3919    1.0000 </r>
       <r>   -0.9392   -0.0000 </r>
       <r>   -0.3389    0.0000 </r>
       <r>    0.0479    0.0000 </r>
       <r>    1.6633    0.0000 </r>
       <r>    4.5806    0.0000 </r>
       <r>    4.5004    0.0000 </r>
       <r>    7.0827    0.0000 </r>
      </set>
      <set comment="kpoint 74">
       <r>  -17.9715    1.0000 </r>
       <r>  -17.2369    1.0000 </r>
       <r>   -8.9611    1.0000 </r>
       <r>   -7.7999    1.0000 </r>
       <r>   -7.5094    1.0000 </r>
       <r>   -7.0099    1.0000 </r>
       <r>   -5.7094    1.0000 </r>
       <r>   -4.7848    1.0000 </r>
       <r>   -4.3820    1.0000 </r>
       <r>   -0.9490   -0.0000 </r>
       <r>   -0.3687    0.0000 </r>
       <r>   -0.0574    0.0000 </r>
       <r>    1.5293    0.0000 </r>
       <r>    4.2743    0.0000 </r>
       <r>    4.1868    0.0000 </r>
       <r>    7.2268    0.0000 </r>
      </set>
      <set comment="kpoint 75">
       <r>  -18.1524    1.0000 </r>
       <r>  -17.3253    1.0000 </r>
       <r>   -8.9584    1.0000 </r>
       <r>   -7.7682    1.0000 </r>
       <r>   -7.2556    1.0000 </r>
       <r>   -6.8152    1.0000 </r>
       <r>   -5.6818    1.0000 </r>
       <r>   -4.7087    1.0000 </r>
       <r>   -4.3080    1.0000 </r>
       <r>   -0.9058   -0.0000 </r>
       <r>   -0.3838    0.0000 </r>
       <r>   -0.1507    0.0000 </r>
       <r>    1.3680    0.0000 </r>
       <r>    3.9897    0.0000 </r>
       <r>    3.8809    0.0000 </r>
       <r>    7.2552    0.0000 </r>
      </set>
      <set comment="kpoint 76">
       <r>  -18.3261    1.0000 </r>
       <r>  -17.4103    1.0000 </r>
       <r>   -9.0188    1.0000 </r>
       <r>   -7.6594    1.0000 </r>
       <r>   -7.0487    1.0000 </r>
       <r>   -6.5462    1.0000 </r>
       <r>   -5.7323    1.0000 </r>
       <r>   -4.6567    1.0000 </r>
       <r>   -4.1818    1.0000 </r>
       <r>   -0.8217   -0.0000 </r>
       <r>   -0.3699    0.0000 </r>
       <r>   -0.2232    0.0000 </r>
       <r>    1.1837    0.0000 </r>
       <r>    3.7293    0.0000 </r>
       <r>    3.6239    0.0000 </r>
       <r>    7.1096    0.0000 </r>
      </set>
      <set comment="kpoint 77">
       <r>  -18.4886    1.0000 </r>
       <r>  -17.4898    1.0000 </r>
       <r>   -9.1259    1.0000 </r>
       <r>   -7.4897    1.0000 </r>
       <r>   -6.8577    1.0000 </r>
       <r>   -6.2475    1.0000 </r>
       <r>   -5.8322    1.0000 </r>
       <r>   -4.6299    1.0000 </r>
       <r>   -4.0330    1.0000 </r>
       <r>   -0.7105    0.0000 </r>
       <r>   -0.3172    0.0000 </r>
       <r>   -0.2677    0.0000 </r>
       <r>    0.9844    0.0000 </r>
       <r>    3.4951    0.0000 </r>
       <r>    3.3939    0.0000 </r>
       <r>    6.8143    0.0000 </r>
      </set>
      <set comment="kpoint 78">
       <r>  -18.6363    1.0000 </r>
       <r>  -17.5622    1.0000 </r>
       <r>   -9.2548    1.0000 </r>
       <r>   -7.2853    1.0000 </r>
       <r>   -6.6612    1.0000 </r>
       <r>   -5.9561    1.0000 </r>
       <r>   -5.9537    1.0000 </r>
       <r>   -4.6294    1.0000 </r>
       <r>   -3.8892    1.0000 </r>
       <r>   -0.5791    0.0000 </r>
       <r>   -0.2791    0.0000 </r>
       <r>   -0.2281    0.0000 </r>
       <r>    0.7803    0.0000 </r>
       <r>    3.2888    0.0000 </r>
       <r>    3.1861    0.0000 </r>
       <r>    6.3326    0.0000 </r>
      </set>
      <set comment="kpoint 79">
       <r>  -18.7661    1.0000 </r>
       <r>  -17.6259    1.0000 </r>
       <r>   -9.3860    1.0000 </r>
       <r>   -7.0695    1.0000 </r>
       <r>   -6.4536    1.0000 </r>
       <r>   -6.0769    1.0000 </r>
       <r>   -5.6935    1.0000 </r>
       <r>   -4.6565    1.0000 </r>
       <r>   -3.7676    1.0001 </r>
       <r>   -0.4268    0.0000 </r>
       <r>   -0.2554    0.0000 </r>
       <r>   -0.1175    0.0000 </r>
       <r>    0.5823    0.0000 </r>
       <r>    3.1125    0.0000 </r>
       <r>    3.0127    0.0000 </r>
       <r>    6.0037    0.0000 </r>
      </set>
      <set comment="kpoint 80">
       <r>  -18.8756    1.0000 </r>
       <r>  -17.6798    1.0000 </r>
       <r>   -9.5066    1.0000 </r>
       <r>   -6.8615    1.0000 </r>
       <r>   -6.2367    1.0000 </r>
       <r>   -6.1894    1.0000 </r>
       <r>   -5.4727    1.0000 </r>
       <r>   -4.7122    1.0000 </r>
       <r>   -3.6751    1.0050 </r>
       <r>   -0.2560    0.0000 </r>
       <r>   -0.1999    0.0000 </r>
       <r>   -0.0044    0.0000 </r>
       <r>    0.4017    0.0000 </r>
       <r>    2.9663    0.0000 </r>
       <r>    2.8612    0.0000 </r>
       <r>    5.5287    0.0000 </r>
      </set>
      <set comment="kpoint 81">
       <r>  -18.9628    1.0000 </r>
       <r>  -17.7227    1.0000 </r>
       <r>   -9.6078    1.0000 </r>
       <r>   -6.6780    1.0000 </r>
       <r>   -6.2830    1.0000 </r>
       <r>   -6.0168    1.0000 </r>
       <r>   -5.3007    1.0000 </r>
       <r>   -4.7966    1.0000 </r>
       <r>   -3.6113    1.0286 </r>
       <r>   -0.1228    0.0000 </r>
       <r>   -0.0788    0.0000 </r>
       <r>    0.0960    0.0000 </r>
       <r>    0.2487    0.0000 </r>
       <r>    2.8510    0.0000 </r>
       <r>    2.7365    0.0000 </r>
       <r>    5.0847    0.0000 </r>
      </set>
      <set comment="kpoint 82">
       <r>  -19.0262    1.0000 </r>
       <r>  -17.7539    1.0000 </r>
       <r>   -9.6839    1.0000 </r>
       <r>   -6.5339    1.0000 </r>
       <r>   -6.3528    1.0000 </r>
       <r>   -5.8048    1.0000 </r>
       <r>   -5.1798    1.0000 </r>
       <r>   -4.9057    1.0000 </r>
       <r>   -3.5715    1.0301 </r>
       <r>   -0.0416    0.0000 </r>
       <r>    0.0820    0.0000 </r>
       <r>    0.1316    0.0000 </r>
       <r>    0.1734    0.0000 </r>
       <r>    2.6431    0.0000 </r>
       <r>    2.7641    0.0000 </r>
       <r>    4.6277    0.0000 </r>
      </set>
      <set comment="kpoint 83">
       <r>  -19.0646    1.0000 </r>
       <r>  -17.7729    1.0000 </r>
       <r>   -9.7310    1.0000 </r>
       <r>   -6.4417    1.0000 </r>
       <r>   -6.3958    1.0000 </r>
[...]
        <r>  0.0038  0.0882  0.0001  0.0294  0.0000  0.0000  0.0000  0.0000  0.0000 </r>
        <r>  0.0038  0.0883  0.0001  0.0294  0.0000  0.0000  0.0000  0.0000  0.0000 </r>
       </set>
       <set comment="band 5">
        <r>  0.0000  0.0046  0.0000  0.0069  0.4234  0.0000  0.0002  0.0000  0.1413 </r>
        <r>  0.0000  0.0307  0.0000  0.0921  0.0000  0.0000  0.0000  0.0000  0.0000 </r>
        <r>  0.0000  0.0307  0.0000  0.0922  0.0000  0.0000  0.0000  0.0000  0.0000 </r>
       </set>
       <set comment="band 6">
        <r>  0.0000  0.0000  0.0163  0.0000  0.0000  0.1926  0.0000  0.0661  0.0000 </r>
        <r>  0.0001  0.0391  0.1450  0.0149  0.0000  0.0000  0.0000  0.0000  0.0000 </r>
        <r>  0.0001  0.0390  0.1450  0.0149  0.0000  0.0000  0.0000  0.0000  0.0000 </r>
       </set>
       <set comment="band 7">
        <r>  0.0000  0.0000  0.0005  0.0000  0.0000  0.1290  0.0000  0.3805  0.0000 </r>
        <r>  0.0002  0.0476  0.0005  0.1114  0.0000  0.0000  0.0000  0.0000  0.0000 </r>
        <r>  0.0002  0.0476  0.0005  0.1113  0.0000  0.0000  0.0000  0.0000  0.0000 </r>
       </set>
       <set comment="band 8">
        <r>  0.0000  0.0000  0.0500  0.0000  0.0000  0.1582  0.0000  0.0527  0.0000 </r>
        <r>  0.0002  0.0838  0.1007  0.0370  0.0000  0.0000  0.0000  0.0000  0.0000 </r>
        <r>  0.0002  0.0837  0.1006  0.0370  0.0000  0.0000  0.0000  0.0000  0.0000 </r>
       </set>
       <set comment="band 9">
        <r>  0.0152  0.0006  0.0000  0.0002  0.0048  0.0000  0.5945  0.0000  0.0130 </r>
        <r>  0.0036  0.0045  0.0647  0.0016  0.0000  0.0000  0.0000  0.0000  0.0000 </r>
        <r>  0.0036  0.0045  0.0647  0.0016  0.0000  0.0000  0.0000  0.0000  0.0000 </r>
       </set>
       <set comment="band 10">
        <r>  0.0000  0.0000  0.0004  0.0000  0.0000  0.2764  0.0000  0.1477  0.0000 </r>
        <r>  0.0106  0.1037  0.0018  0.0347  0.0000  0.0000  0.0000  0.0000  0.0000 </r>
        <r>  0.0105  0.1021  0.0017  0.0342  0.0000  0.0000  0.0000  0.0000  0.0000 </r>
       </set>
       <set comment="band 11">
        <r>  0.0019  0.0111  0.0000  0.0051  0.0797  0.0000  0.0184  0.0000  0.2389 </r>
        <r>  0.0062  0.1371  0.0023  0.0463  0.0000  0.0000  0.0000  0.0000  0.0000 </r>
        <r>  0.0063  0.1387  0.0023  0.0469  0.0000  0.0000  0.0000  0.0000  0.0000 </r>
       </set>
       <set comment="band 12">
        <r>  0.0003  0.0061  0.0000  0.0135  0.2484  0.0000  0.0015  0.0000  0.0828 </r>
        <r>  0.0000  0.0529  0.0001  0.1573  0.0000  0.0000  0.0000  0.0000  0.0000 </r>
        <r>  0.0000  0.0528  0.0001  0.1569  0.0000  0.0000  0.0000  0.0000  0.0000 </r>
       </set>
       <set comment="band 13">
        <r>  0.0000  0.0000  0.0002  0.0000  0.0000  0.1382  0.0000  0.2550  0.0000 </r>
        <r>  0.0002  0.0436  0.0004  0.1309  0.0000  0.0000  0.0000  0.0000  0.0000 </r>
        <r>  0.0002  0.0438  0.0004  0.1313  0.0000  0.0000  0.0000  0.0000  0.0000 </r>
       </set>
       <set comment="band 14">
        <r>  0.0126  0.0009  0.0000  0.0004  0.0008  0.0000  0.0196  0.0000  0.0023 </r>
        <r>  0.0093  0.0036  0.0042  0.0012  0.0000  0.0000  0.0000  0.0000  0.0000 </r>
        <r>  0.0097  0.0037  0.0049  0.0013  0.0000  0.0000  0.0000  0.0000  0.0000 </r>
       </set>
       <set comment="band 15">
        <r>  0.0000  0.0000  0.0013  0.0000  0.0000  0.0013  0.0000  0.0005  0.0000 </r>
        <r>  0.0017  0.0004  0.0139  0.0002  0.0000  0.0000  0.0000  0.0000  0.0000 </r>
        <r>  0.0013  0.0003  0.0132  0.0001  0.0000  0.0000  0.0000  0.0000  0.0000 </r>
       </set>
       <set comment="band 16">
        <r>  0.1619  0.0032  0.0000  0.0030  0.0038  0.0000  0.0312  0.0000  0.0077 </r>
        <r>  0.0677  0.0113  0.0276  0.0038  0.0000  0.0000  0.0000  0.0000  0.0000 </r>
        <r>  0.0676  0.0113  0.0276  0.0038  0.0000  0.0000  0.0000  0.0000  0.0000 </r>
       </set>
      </set>
      <set comment="kpoint 82">
       <set comment="band 1">
        <r>  0.1291  0.0011  0.0000  0.0004  0.0001  0.0000  0.0004  0.0000  0.0004 </r>
        <r>  0.2764  0.0001  0.0047  0.0000  0.0000  0.0000  0.0000  0.0000  0.0000 </r>
        <r>  0.2765  0.0001  0.0047  0.0000  0.0000  0.0000  0.0000  0.0000  0.0000 </r>
       </set>
       <set comment="band 2">
        <r>  0.0000  0.0000  0.0585  0.0000  0.0000  0.0020  0.0000  0.0007  0.0000 </r>
        <r>  0.3146  0.0001  0.0004  0.0000  0.0000  0.0000  0.0000  0.0000  0.0000 </r>
        <r>  0.3145  0.0001  0.0004  0.0000  0.0000  0.0000  0.0000  0.0000  0.0000 </r>
       </set>
       <set comment="band 3">
        <r>  0.1316  0.0021  0.0000  0.0007  0.0007  0.0000  0.1952  0.0000  0.0019 </r>
        <r>  0.0174  0.0002  0.1281  0.0001  0.0000  0.0000  0.0000  0.0000  0.0000 </r>
        <r>  0.0174  0.0002  0.1281  0.0001  0.0000  0.0000  0.0000  0.0000  0.0000 </r>
       </set>
       <set comment="band 4">
        <r>  0.0073  0.0051  0.0000  0.0026  0.1409  0.0000  0.0000  0.0000  0.4223 </r>
        <r>  0.0018  0.0878  0.0000  0.0293  0.0000  0.0000  0.0000  0.0000  0.0000 </r>
        <r>  0.0018  0.0879  0.0000  0.0293  0.0000  0.0000  0.0000  0.0000  0.0000 </r>
       </set>
       <set comment="band 5">
        <r>  0.0000  0.0030  0.0000  0.0062  0.4324  0.0000  0.0000  0.0000  0.1443 </r>
        <r>  0.0000  0.0299  0.0000  0.0896  0.0000  0.0000  0.0000  0.0000  0.0000 </r>
        <r>  0.0000  0.0299  0.0000  0.0897  0.0000  0.0000  0.0000  0.0000  0.0000 </r>
       </set>
       <set comment="band 6">
        <r>  0.0000  0.0000  0.0285  0.0000  0.0000  0.1458  0.0000  0.0491  0.0000 </r>
        <r>  0.0001  0.0298  0.1705  0.0108  0.0000  0.0000  0.0000  0.0000  0.0000 </r>
        <r>  0.0001  0.0298  0.1705  0.0107  0.0000  0.0000  0.0000  0.0000  0.0000 </r>
       </set>
       <set comment="band 7">
        <r>  0.0000  0.0000  0.0001  0.0000  0.0000  0.1303  0.0000  0.3887  0.0000 </r>
        <r>  0.0000  0.0432  0.0001  0.1151  0.0000  0.0000  0.0000  0.0000  0.0000 </r>
        <r>  0.0000  0.0432  0.0001  0.1151  0.0000  0.0000  0.0000  0.0000  0.0000 </r>
       </set>
       <set comment="band 8">
        <r>  0.0000  0.0000  0.0347  0.0000  0.0000  0.2259  0.0000  0.0754  0.0000 </r>
        <r>  0.0000  0.0912  0.0763  0.0345  0.0000  0.0000  0.0000  0.0000  0.0000 </r>
        <r>  0.0000  0.0911  0.0763  0.0345  0.0000  0.0000  0.0000  0.0000  0.0000 </r>
       </set>
       <set comment="band 9">
        <r>  0.0148  0.0003  0.0000  0.0001  0.0019  0.0000  0.6035  0.0000  0.0054 </r>
        <r>  0.0029  0.0021  0.0669  0.0007  0.0000  0.0000  0.0000  0.0000  0.0000 </r>
        <r>  0.0029  0.0021  0.0670  0.0007  0.0000  0.0000  0.0000  0.0000  0.0000 </r>
       </set>
       <set comment="band 10">
        <r>  0.0000  0.0000  0.0003  0.0000  0.0000  0.2727  0.0000  0.1264  0.0000 </r>
        <r>  0.0054  0.1179  0.0007  0.0400  0.0000  0.0000  0.0000  0.0000  0.0000 </r>
        <r>  0.0053  0.1173  0.0007  0.0398  0.0000  0.0000  0.0000  0.0000  0.0000 </r>
       </set>
       <set comment="band 11">
        <r>  0.0014  0.0127  0.0000  0.0051  0.0789  0.0000  0.0074  0.0000  0.2361 </r>
        <r>  0.0036  0.1517  0.0010  0.0512  0.0000  0.0000  0.0000  0.0000  0.0000 </r>
        <r>  0.0036  0.1523  0.0010  0.0514  0.0000  0.0000  0.0000  0.0000  0.0000 </r>
       </set>
       <set comment="band 12">
        <r>  0.0000  0.0000  0.0000  0.0000  0.0000  0.1222  0.0000  0.2613  0.0000 </r>
        <r>  0.0001  0.0448  0.0001  0.1329  0.0000  0.0000  0.0000  0.0000  0.0000 </r>
        <r>  0.0001  0.0441  0.0001  0.1308  0.0000  0.0000  0.0000  0.0000  0.0000 </r>
       </set>
       <set comment="band 13">
        <r>  0.0000  0.0056  0.0000  0.0141  0.2400  0.0000  0.0004  0.0000  0.0801 </r>
        <r>  0.0000  0.0544  0.0000  0.1616  0.0000  0.0000  0.0000  0.0000  0.0000 </r>
        <r>  0.0000  0.0551  0.0000  0.1636  0.0000  0.0000  0.0000  0.0000  0.0000 </r>
       </set>
       <set comment="band 14">
        <r>  0.0155  0.0005  0.0000  0.0002  0.0005  0.0000  0.0193  0.0000  0.0014 </r>
        <r>  0.0117  0.0024  0.0039  0.0008  0.0000  0.0000  0.0000  0.0000  0.0000 </r>
        <r>  0.0120  0.0025  0.0043  0.0008  0.0000  0.0000  0.0000  0.0000  0.0000 </r>
       </set>
       <set comment="band 15">
        <r>  0.0000  0.0000  0.0014  0.0000  0.0000  0.0006  0.0000  0.0002  0.0000 </r>
        <r>  0.0019  0.0002  0.0135  0.0001  0.0000  0.0000  0.0000  0.0000  0.0000 </r>
        <r>  0.0016  0.0002  0.0131  0.0001  0.0000  0.0000  0.0000  0.0000  0.0000 </r>
       </set>
       <set comment="band 16">
        <r>  0.1616  0.0011  0.0000  0.0015  0.0017  0.0000  0.0225  0.0000  0.0033 </r>
        <r>  0.0747  0.0065  0.0245  0.0022  0.0000  0.0000  0.0000  0.0000  0.0000 </r>
        <r>  0.0747  0.0065  0.0246  0.0022  0.0000  0.0000  0.0000  0.0000  0.0000 </r>
       </set>
      </set>
      <set comment="kpoint 83">
       <set comment="band 1">
        <r>  0.1310  0.0003  0.0000  0.0001  0.0000  0.0000  0.0004  0.0000  0.0001 </r>
        <r>  0.2758  0.0000  0.0047  0.0000  0.0000  0.0000  0.0000  0.0000  0.0000 </r>
        <r>  0.2759  0.0000  0.0047  0.0000  0.0000  0.0000  0.0000  0.0000  0.0000 </r>
       </set>
       <set comment="band 2">
        <r>  0.0000  0.0000  0.0594  0.0000  0.0000  0.0005  0.0000  0.0002  0.0000 </r>
        <r>  0.3144  0.0000  0.0003  0.0000  0.0000  0.0000  0.0000  0.0000  0.0000 </r>
        <r>  0.3143  0.0000  0.0003  0.0000  0.0000  0.0000  0.0000  0.0000  0.0000 </r>
       </set>
       <set comment="band 3">
        <r>  0.1349  0.0005  0.0000  0.0002  0.0002  0.0000  0.1973  0.0000  0.0005 </r>
        <r>  0.0177  0.0001  0.1271  0.0000  0.0000  0.0000  0.0000  0.0000  0.0000 </r>
        <r>  0.0177  0.0001  0.1272  0.0000  0.0000  0.0000  0.0000  0.0000  0.0000 </r>
       </set>
       <set comment="band 4">
        <r>  0.0019  0.0055  0.0000  0.0020  0.1455  0.0000  0.0000  0.0000  0.4349 </r>
        <r>  0.0005  0.0875  0.0000  0.0293  0.0000  0.0000  0.0000  0.0000  0.0000 </r>
        <r>  0.0005  0.0876  0.0000  0.0293  0.0000  0.0000  0.0000  0.0000  0.0000 </r>
       </set>
       <set comment="band 5">
        <r>  0.0000  0.0021  0.0000  0.0057  0.4372  0.0000  0.0000  0.0000  0.1463 </r>
        <r>  0.0000  0.0295  0.0000  0.0881  0.0000  0.0000  0.0000  0.0000  0.0000 </r>
        <r>  0.0000  0.0295  0.0000  0.0882  0.0000  0.0000  0.0000  0.0000  0.0000 </r>
       </set>
       <set comment="band 6">
        <r>  0.0000  0.0000  0.0457  0.0000  0.0000  0.0695  0.0000  0.0232  0.0000 </r>
        <r>  0.0001  0.0148  0.2103  0.0050  0.0000  0.0000  0.0000  0.0000  0.0000 </r>
        <r>  0.0001  0.0147  0.2103  0.0050  0.0000  0.0000  0.0000  0.0000  0.0000 </r>
       </set>
       <set comment="band 7">
        <r>  0.0000  0.0000  0.0000  0.0000  0.0000  0.1316  0.0000  0.3922  0.0000 </r>
        <r>  0.0000  0.0400  0.0000  0.1178  0.0000  0.0000  0.0000  0.0000  0.0000 </r>
        <r>  0.0000  0.0400  0.0000  0.1178  0.0000  0.0000  0.0000  0.0000  0.0000 </r>
       </set>
       <set comment="band 8">
        <r>  0.0000  0.0000  0.0151  0.0000  0.0000  0.3165  0.0000  0.1063  0.0000 </r>
        <r>  0.0000  0.1052  0.0368  0.0357  0.0000  0.0000  0.0000  0.0000  0.0000 </r>
        <r>  0.0000  0.1051  0.0368  0.0357  0.0000  0.0000  0.0000  0.0000  0.0000 </r>
       </set>
       <set comment="band 9">
        <r>  0.0144  0.0001  0.0000  0.0000  0.0004  0.0000  0.6080  0.0000  0.0013 </r>
        <r>  0.0026  0.0005  0.0682  0.0002  0.0000  0.0000  0.0000  0.0000  0.0000 </r>
        <r>  0.0026  0.0005  0.0682  0.0002  0.0000  0.0000  0.0000  0.0000  0.0000 </r>
       </set>
       <set comment="band 10">
        <r>  0.0000  0.0000  0.0001  0.0000  0.0000  0.2536  0.0000  0.1286  0.0000 </r>
        <r>  0.0014  0.1226  0.0001  0.0497  0.0000  0.0000  0.0000  0.0000  0.0000 </r>
        <r>  0.0014  0.1222  0.0001  0.0495  0.0000  0.0000  0.0000  0.0000  0.0000 </r>
       </set>
       <set comment="band 11">
        <r>  0.0000  0.0000  0.0000  0.0000  0.0000  0.1278  0.0000  0.2497  0.0000 </r>
        <r>  0.0001  0.0506  0.0000  0.1265  0.0000  0.0000  0.0000  0.0000  0.0000 </r>
        <r>  0.0001  0.0504  0.0000  0.1261  0.0000  0.0000  0.0000  0.0000  0.0000 </r>
       </set>
       <set comment="band 12">
        <r>  0.0006  0.0138  0.0000  0.0052  0.0794  0.0000  0.0017  0.0000  0.2325 </r>
        <r>  0.0012  0.1615  0.0003  0.0558  0.0000  0.0000  0.0000  0.0000  0.0000 </r>
        <r>  0.0012  0.1619  0.0003  0.0559  0.0000  0.0000  0.0000  0.0000  0.0000 </r>
       </set>
       <set comment="band 13">
        <r>  0.0000  0.0054  0.0000  0.0142  0.2338  0.0000  0.0001  0.0000  0.0798 </r>
        <r>  0.0000  0.0568  0.0000  0.1645  0.0000  0.0000  0.0000  0.0000  0.0000 </r>
        <r>  0.0000  0.0570  0.0000  0.1650  0.0000  0.0000  0.0000  0.0000  0.0000 </r>
       </set>
       <set comment="band 14">
        <r>  0.0187  0.0002  0.0000  0.0001  0.0002  0.0000  0.0190  0.0000  0.0005 </r>
        <r>  0.0143  0.0009  0.0035  0.0003  0.0000  0.0000  0.0000  0.0000  0.0000 </r>
        <r>  0.0146  0.0009  0.0038  0.0003  0.0000  0.0000  0.0000  0.0000  0.0000 </r>
       </set>
       <set comment="band 15">
        <r>  0.0000  0.0000  0.0015  0.0000  0.0000  0.0002  0.0000  0.0001  0.0000 </r>
        <r>  0.0021  0.0001  0.0133  0.0000  0.0000  0.0000  0.0000  0.0000  0.0000 </r>
        <r>  0.0019  0.0001  0.0130  0.0000  0.0000  0.0000  0.0000  0.0000  0.0000 </r>
       </set>
       <set comment="band 16">
        <r>  0.1564  0.0002  0.0000  0.0006  0.0004  0.0000  0.0147  0.0000  0.0009 </r>
        <r>  0.0789  0.0021  0.0213  0.0007  0.0000  0.0000  0.0000  0.0000  0.0000 </r>
        <r>  0.0789  0.0021  0.0213  0.0007  0.0000  0.0000  0.0000  0.0000  0.0000 </r>
       </set>
      </set>
      <set comment="kpoint 84">
       <set comment="band 1">
        <r>  0.1317  0.0000  0.0000  0.0000  0.0000  0.0000  0.0004  0.0000  0.0000 </r>
        <r>  0.2756  0.0000  0.0047  0.0000  0.0000  0.0000  0.0000  0.0000  0.0000 </r>
        <r>  0.2757  0.0000  0.0047  0.0000  0.0000  0.0000  0.0000  0.0000  0.0000 </r>
       </set>
       <set comment="band 2">
        <r>  0.0000  0.0000  0.0597  0.0000  0.0000  0.0000  0.0000  0.0000  0.0000 </r>
        <r>  0.3143  0.0000  0.0003  0.0000  0.0000  0.0000  0.0000  0.0000  0.0000 </r>
        <r>  0.3143  0.0000  0.0003  0.0000  0.0000  0.0000  0.0000  0.0000  0.0000 </r>
       </set>
       <set comment="band 3">
        <r>  0.1360  0.0000  0.0000  0.0000  0.0000  0.0000  0.1980  0.0000  0.0000 </r>
        <r>  0.0179  0.0000  0.1268  0.0000  0.0000  0.0000  0.0000  0.0000  0.0000 </r>
        <r>  0.0179  0.0000  0.1269  0.0000  0.0000  0.0000  0.0000  0.0000  0.0000 </r>
       </set>
       <set comment="band 4">
        <r>  0.0000  0.0036  0.0000  0.0038  0.3009  0.0000  0.0000  0.0000  0.2851 </r>
        <r>  0.0000  0.0569  0.0000  0.0600  0.0000  0.0000  0.0000  0.0000  0.0000 </r>
        <r>  0.0000  0.0569  0.0000  0.0601  0.0000  0.0000  0.0000  0.0000  0.0000 </r>
       </set>
       <set comment="band 5">
        <r>  0.0000  0.0038  0.0000  0.0036  0.2851  0.0000  0.0000  0.0000  0.3013 </r>
        <r>  0.0000  0.0599  0.0000  0.0569  0.0000  0.0000  0.0000  0.0000  0.0000 </r>
        <r>  0.0000  0.0599  0.0000  0.0569  0.0000  0.0000  0.0000  0.0000  0.0000 </r>
       </set>
       <set comment="band 6">
        <r>  0.0000  0.0000  0.0599  0.0000  0.0000  0.0002  0.0000  0.0001  0.0000 </r>
        <r>  0.0001  0.0000  0.2471  0.0000  0.0000  0.0000  0.0000  0.0000  0.0000 </r>
        <r>  0.0001  0.0000  0.2471  0.0000  0.0000  0.0000  0.0000  0.0000  0.0000 </r>
       </set>
       <set comment="band 7">
        <r>  0.0000  0.0000  0.0000  0.0000  0.0000  0.1711  0.0000  0.3537  0.0000 </r>
        <r>  0.0000  0.0512  0.0000  0.1066  0.0000  0.0000  0.0000  0.0000  0.0000 </r>
        <r>  0.0000  0.0512  0.0000  0.1065  0.0000  0.0000  0.0000  0.0000  0.0000 </r>
       </set>
       <set comment="band 8">
        <r>  0.0000  0.0000  0.0000  0.0000  0.0000  0.3519  0.0000  0.1709  0.0000 </r>
        <r>  0.0000  0.1071  0.0001  0.0513  0.0000  0.0000  0.0000  0.0000  0.0000 </r>
        <r>  0.0000  0.1071  0.0001  0.0512  0.0000  0.0000  0.0000  0.0000  0.0000 </r>
       </set>
       <set comment="band 9">
        <r>  0.0143  0.0000  0.0000  0.0000  0.0000  0.0000  0.6095  0.0000  0.0000 </r>
        <r>  0.0024  0.0000  0.0686  0.0000  0.0000  0.0000  0.0000  0.0000  0.0000 </r>
        <r>  0.0024  0.0000  0.0687  0.0000  0.0000  0.0000  0.0000  0.0000  0.0000 </r>
       </set>
       <set comment="band 10">
        <r>  0.0000  0.0000  0.0000  0.0000  0.0000  0.1868  0.0000  0.1889  0.0000 </r>
        <r>  0.0000  0.0885  0.0000  0.0890  0.0000  0.0000  0.0000  0.0000  0.0000 </r>
        <r>  0.0000  0.0883  0.0000  0.0887  0.0000  0.0000  0.0000  0.0000  0.0000 </r>
       </set>
       <set comment="band 11">
        <r>  0.0000  0.0000  0.0000  0.0000  0.0000  0.1898  0.0000  0.1863  0.0000 </r>
        <r>  0.0000  0.0886  0.0000  0.0887  0.0000  0.0000  0.0000  0.0000  0.0000 </r>
        <r>  0.0000  0.0883  0.0000  0.0885  0.0000  0.0000  0.0000  0.0000  0.0000 </r>
       </set>
       <set comment="band 12">
        <r>  0.0000  0.0142  0.0000  0.0054  0.0855  0.0000  0.0000  0.0000  0.2251 </r>
        <r>  0.0000  0.1617  0.0000  0.0614  0.0000  0.0000  0.0000  0.0000  0.0000 </r>
        <r>  0.0000  0.1620  0.0000  0.0616  0.0000  0.0000  0.0000  0.0000  0.0000 </r>
       </set>
       <set comment="band 13">
        <r>  0.0000  0.0054  0.0000  0.0142  0.2257  0.0000  0.0000  0.0000  0.0857 </r>
        <r>  0.0000  0.0614  0.0000  0.1615  0.0000  0.0000  0.0000  0.0000  0.0000 </r>
        <r>  0.0000  0.0615  0.0000  0.1618  0.0000  0.0000  0.0000  0.0000  0.0000 </r>
       </set>
       <set comment="band 14">
        <r>  0.0214  0.0000  0.0000  0.0000  0.0000  0.0000  0.0190  0.0000  0.0000 </r>
        <r>  0.0164  0.0000  0.0032  0.0000  0.0000  0.0000  0.0000  0.0000  0.0000 </r>
        <r>  0.0166  0.0000  0.0034  0.0000  0.0000  0.0000  0.0000  0.0000  0.0000 </r>
       </set>
       <set comment="band 15">
        <r>  0.0000  0.0000  0.0016  0.0000  0.0000  0.0000  0.0000  0.0000  0.0000 </r>
        <r>  0.0022  0.0000  0.0132  0.0000  0.0000  0.0000  0.0000  0.0000  0.0000 </r>
        <r>  0.0020  0.0000  0.0130  0.0000  0.0000  0.0000  0.0000  0.0000  0.0000 </r>
       </set>
       <set comment="band 16">
        <r>  0.1452  0.0002  0.0000  0.0003  0.0000  0.0000  0.0090  0.0000  0.0000 </r>
        <r>  0.0784  0.0000  0.0178  0.0000  0.0000  0.0000  0.0000  0.0000  0.0000 </r>
        <r>  0.0785  0.0000  0.0178  0.0000  0.0000  0.0000  0.0000  0.0000  0.0000 </r>
       </set>
      </set>
     </set>
    </set>
   </array>
  </projected>
 </calculation>
 <structure name="finalpos" >
  <crystal>
   <varray name="basis" >
    <v>       3.18948369       0.00000000       0.00000000 </v>
    <v>      -1.59474135       2.76217501       0.00000000 </v>
    <v>       0.00000000       0.00000000      23.14344274 </v>
   </varray>
   <i name="volume">    203.89169741 </i>
   <varray name="rec_basis" >
    <v>       0.31353037       0.18101671       0.00000000 </v>
    <v>       0.00000000       0.36203354       0.00000000 </v>
    <v>       0.00000000       0.00000000       0.04320878 </v>
   </varray>
  </crystal>
  <varray name="positions" >
   <v>       0.66666700       0.33333300       0.49972185 </v>
   <v>       0.33333300       0.66666700       0.43182203 </v>
   <v>       0.33333300       0.66666700       0.56761868 </v>
  </varray>
 </structure>
</modeling>
